REMARK  4 active torsions:
REMARK  status: ('A' for Active; 'I' for Inactive)
REMARK    1  A    between atoms: C1_1  and  C6_8 
REMARK    2  A    between atoms: C2_3  and  C3_5 
REMARK    3  A    between atoms: C2_3  and  C11_13 
REMARK    4  A    between atoms: C6_8  and  C8_10 
ROOT
HETATM    1  C8  IBP A 701      27.122  33.217 202.233  1.00 27.58    -0.012 A 
HETATM    2  C9  IBP A 701      25.823  33.737 202.024  1.00 27.05    -0.004 A 
HETATM    3  C10 IBP A 701      25.531  34.561 200.908  1.00 27.45    -0.005 A 
HETATM    4  C11 IBP A 701      26.528  34.899 199.955  1.00 28.26    -0.022 A 
HETATM    5  C12 IBP A 701      27.822  34.380 200.162  1.00 28.22    -0.005 A 
HETATM    6  C13 IBP A 701      28.116  33.554 201.279  1.00 27.77    -0.004 A 
ENDROOT
BRANCH   1   7
HETATM    7  C6  IBP A 701      27.418  32.330 203.466  1.00 27.80     0.110 C 
HETATM    8  C7  IBP A 701      28.716  32.701 204.189  1.00 27.34     0.016 C 
BRANCH   7   9
HETATM    9  C1  IBP A 701      27.431  30.874 203.025  1.00 28.39     0.189 C 
HETATM   10  O1  IBP A 701      26.296  30.252 203.207  1.00 28.34    -0.647 OA
HETATM   11  O2  IBP A 701      28.416  30.312 202.559  1.00 29.49    -0.647 OA
ENDBRANCH   7   9
ENDBRANCH   1   7
BRANCH   4  12
HETATM   12  C2  IBP A 701      26.203  35.794 198.764  1.00 28.16     0.026 C 
BRANCH  12  13
HETATM   13  C3  IBP A 701      26.008  35.060 197.431  1.00 29.23     0.004 C 
HETATM   14  C4  IBP A 701      26.424  35.959 196.274  1.00 28.68     0.000 C 
HETATM   15  C5  IBP A 701      24.569  34.635 197.244  1.00 27.70     0.000 C 
ENDBRANCH  12  13
ENDBRANCH   4  12
TORSDOF 4
