REMARK  Name = m1
REMARK  7 active torsions:
REMARK  status: ('A' for Active; 'I' for Inactive)
REMARK    1  A    between atoms: C_1  and  C_2
REMARK    2  A    between atoms: C_5  and  N_6
REMARK    3  A    between atoms: N_9  and  C_10
REMARK    4  A    between atoms: C_14  and  C_15
REMARK    5  A    between atoms: C_17  and  O_18
REMARK    6  A    between atoms: O_18  and  C_19
REMARK    7  A    between atoms: C_19  and  C_20
REMARK                            x       y       z     vdW  Elec       q    Type
REMARK                         _______ _______ _______ _____ _____    ______ ____
ROOT
ATOM      1  C   UNL     1      -0.255  -0.388   0.450  0.00  0.00    +0.078 A 
ATOM      2  C   UNL     1      -1.638  -0.353   0.285  0.00  0.00    +0.142 A 
ATOM      3  C   UNL     1      -2.329  -1.520   0.005  0.00  0.00    +0.052 A 
ATOM      4  C   UNL     1      -1.648  -2.719  -0.101  0.00  0.00    -0.033 A 
ATOM      5  C   UNL     1      -2.403  -3.988  -0.400  0.00  0.00    +0.045 C 
ATOM      6  C   UNL     1      -0.275  -2.755   0.067  0.00  0.00    +0.023 A 
ATOM      7 BR   UNL     1       0.650  -4.398  -0.080  0.00  0.00    -0.050 Br
ATOM      8  C   UNL     1       0.422  -1.593   0.342  0.00  0.00    +0.042 A 
ENDROOT
BRANCH   1  12
ATOM      9  N   UNL     1       2.464   1.969   0.794  0.00  0.00    -0.253 N 
ATOM     10  H   UNL     1       2.052   2.645   1.356  0.00  0.00    +0.158 HD
ATOM     11  C   UNL     1       1.756   0.886   0.415  0.00  0.00    +0.309 C 
ATOM     12  N   UNL     1       0.449   0.791   0.730  0.00  0.00    -0.266 N 
ATOM     13  H   UNL     1      -0.004   1.539   1.149  0.00  0.00    +0.156 HD
ATOM     14  O   UNL     1       2.297  -0.005  -0.210  0.00  0.00    -0.252 OA
BRANCH   9  19
ATOM     15  C   UNL     1       7.758   2.610  -0.839  0.00  0.00    +0.067 C 
ATOM     16  C   UNL     1       6.328   2.451  -0.392  0.00  0.00    +0.056 A 
ATOM     17  N   UNL     1       5.739   3.417   0.293  0.00  0.00    -0.255 NA
ATOM     18  C   UNL     1       4.485   3.282   0.682  0.00  0.00    +0.154 A 
ATOM     19  C   UNL     1       3.786   2.117   0.380  0.00  0.00    +0.144 A 
ATOM     20  N   UNL     1       4.382   1.148  -0.302  0.00  0.00    -0.237 NA
ATOM     21  C   UNL     1       5.636   1.292  -0.693  0.00  0.00    +0.136 A 
ENDBRANCH   9  19
ENDBRANCH   1  12
BRANCH   2  22
ATOM     22  O   UNL     1      -2.307   0.827   0.391  0.00  0.00    -0.487 OA
BRANCH  22  23
ATOM     23  C   UNL     1      -3.688   0.539   0.164  0.00  0.00    +0.262 C 
BRANCH  23  24
ATOM     24  C   UNL     1      -4.502   1.831   0.268  0.00  0.00    +0.169 C 
ATOM     25  O   UNL     1      -4.120   2.719  -0.783  0.00  0.00    -0.371 OA
ATOM     26  C   UNL     1      -4.849   3.932  -0.595  0.00  0.00    +0.175 C 
ATOM     27  C   UNL     1      -6.347   3.660  -0.733  0.00  0.00    +0.109 C 
ATOM     28  N   UNL     1      -6.778   2.734   0.323  0.00  0.00    -0.311 NA
ATOM     29  H   UNL     1      -7.737   2.494   0.124  0.00  0.00    +0.122 HD
ATOM     30  C   UNL     1      -5.991   1.505   0.152  0.00  0.00    +0.116 C 
ENDBRANCH  23  24
ENDBRANCH  22  23
ENDBRANCH   2  22
TORSDOF 5
