REMARK  Name = m2
REMARK  10 active torsions:
REMARK  status: ('A' for Active; 'I' for Inactive)
REMARK    1  A    between atoms: C_1  and  C_2
REMARK    2  A    between atoms: C_4  and  N_5
REMARK    3  A    between atoms: N_5  and  C_6
REMARK    4  A    between atoms: C_6  and  C_7
REMARK    5  A    between atoms: C_7  and  O_8
REMARK    6  A    between atoms: O_8  and  C_9
REMARK    7  A    between atoms: C_9  and  C_10
REMARK    8  A    between atoms: C_10  and  O_11
REMARK    9  A    between atoms: C_14  and  C_15
REMARK   10  A    between atoms: C_19  and  C_20
REMARK                            x       y       z     vdW  Elec       q    Type
REMARK                         _______ _______ _______ _____ _____    ______ ____
ROOT
ATOM      1  C   UNL     1       0.055   4.665  -0.061  0.00  0.00    +0.066 C 
ATOM      2  C   UNL     1       0.230   3.176   0.091  0.00  0.00    +0.044 A 
ATOM      3  N   UNL     1      -0.816   2.382   0.012  0.00  0.00    -0.232 NA
ATOM      4  C   UNL     1      -0.691   1.057   0.138  0.00  0.00    +0.166 A 
ATOM      5  N   UNL     1       0.534   0.487   0.365  0.00  0.00    -0.200 N 
ATOM      6  N   UNL     1       0.355  -0.898   0.457  0.00  0.00    -0.159 NA
ATOM      7  C   UNL     1      -0.914  -1.181   0.297  0.00  0.00    +0.175 A 
ATOM      8  C   UNL     1       1.646   1.283   0.459  0.00  0.00    +0.124 A 
ATOM      9  C   UNL     1      -1.620   0.011   0.092  0.00  0.00    +0.058 A 
ATOM     10  C   UNL     1       1.500   2.647   0.321  0.00  0.00    +0.066 A 
ENDROOT
BRANCH   9  11
ATOM     11  C   UNL     1      -3.079   0.140  -0.131  0.00  0.00    -0.012 A 
ATOM     12  C   UNL     1      -3.561   0.621  -1.348  0.00  0.00    +0.011 A 
ATOM     13  C   UNL     1      -4.921   0.735  -1.553  0.00  0.00    +0.039 A 
ATOM     14  C   UNL     1      -5.807   0.383  -0.547  0.00  0.00    +0.123 A 
ATOM     15  F   UNL     1      -7.137   0.501  -0.750  0.00  0.00    -0.205 F 
ATOM     16  C   UNL     1      -5.333  -0.090   0.666  0.00  0.00    +0.039 A 
ATOM     17  C   UNL     1      -3.975  -0.213   0.878  0.00  0.00    +0.011 A 
ENDBRANCH   9  11
BRANCH   7  18
ATOM     18  C   UNL     1      -1.515  -2.562   0.328  0.00  0.00    +0.437 C 
ATOM     19  F   UNL     1      -2.035  -2.873  -0.934  0.00  0.00    -0.164 F 
ATOM     20  F   UNL     1      -2.541  -2.603   1.278  0.00  0.00    -0.164 F 
ATOM     21  F   UNL     1      -0.527  -3.493   0.667  0.00  0.00    -0.164 F 
ENDBRANCH   7  18
BRANCH   8  22
ATOM     22  N   UNL     1       2.887   0.730   0.687  0.00  0.00    -0.327 N 
ATOM     23  H   UNL     1       2.980  -0.231   0.782  0.00  0.00    +0.148 HD
BRANCH  22  24
ATOM     24  C   UNL     1       4.066   1.593   0.785  0.00  0.00    +0.131 C 
BRANCH  24  25
ATOM     25  C   UNL     1       5.307   0.734   1.040  0.00  0.00    +0.178 C 
BRANCH  25  26
ATOM     26  O   UNL     1       5.546  -0.105  -0.092  0.00  0.00    -0.376 OA
BRANCH  26  27
ATOM     27  C   UNL     1       6.710  -0.877   0.204  0.00  0.00    +0.187 C 
BRANCH  27  28
ATOM     28  C   UNL     1       7.023  -1.802  -0.974  0.00  0.00    +0.184 C 
BRANCH  28  29
ATOM     29  O   UNL     1       7.371  -1.017  -2.116  0.00  0.00    -0.393 OA
ATOM     30  H   UNL     1       7.560  -1.637  -2.834  0.00  0.00    +0.209 HD
ENDBRANCH  28  29
ENDBRANCH  27  28
ENDBRANCH  26  27
ENDBRANCH  25  26
ENDBRANCH  24  25
ENDBRANCH  22  24
ENDBRANCH   8  22
TORSDOF 9
