REMARK  Name = m3
REMARK  10 active torsions:
REMARK  status: ('A' for Active; 'I' for Inactive)
REMARK    1  A    between atoms: C_1  and  C_2
REMARK    2  A    between atoms: N_5  and  C_6
REMARK    3  A    between atoms: N_12  and  C_13
REMARK    4  A    between atoms: N_17  and  C_18
REMARK    5  A    between atoms: C_20  and  C_21
REMARK    6  A    between atoms: C_35  and  C_36
REMARK    7  A    between atoms: C_35  and  C_37
REMARK    8  A    between atoms: C_41  and  C_42
REMARK    9  A    between atoms: C_42  and  O_43
REMARK   10  A    between atoms: N_45  and  C_46
REMARK                            x       y       z     vdW  Elec       q    Type
REMARK                         _______ _______ _______ _____ _____    ______ ____
ROOT
ATOM      1  C   UNL     1      -1.183   0.460   0.984  0.00  0.00    +0.098 A 
ATOM      2  C   UNL     1      -1.540  -0.189   2.187  0.00  0.00    +0.272 A 
ATOM      3  O   UNL     1      -2.445   0.258   2.873  0.00  0.00    -0.266 OA
ATOM      4  N   UNL     1      -0.894  -1.305   2.573  0.00  0.00    -0.316 N 
ATOM      5  C   UNL     1      -1.280  -1.969   3.820  0.00  0.00    +0.152 C 
ATOM      6  C   UNL     1       0.115  -1.819   1.826  0.00  0.00    +0.097 A 
ATOM      7  C   UNL     1       0.494  -1.220   0.660  0.00  0.00    +0.001 A 
ATOM      8  C   UNL     1      -0.169  -0.051   0.225  0.00  0.00    +0.038 A 
ENDROOT
BRANCH   7   9
ATOM      9  C   UNL     1       1.599  -1.793  -0.146  0.00  0.00    -0.006 A 
ATOM     10  C   UNL     1       2.857  -1.191  -0.167  0.00  0.00    +0.026 A 
ATOM     11  C   UNL     1       3.864  -1.765  -0.931  0.00  0.00    +0.134 A 
ATOM     12  N   UNL     1       5.128  -1.179  -0.958  0.00  0.00    -0.249 N 
ATOM     13  C   UNL     1       6.045  -1.552  -0.033  0.00  0.00    +0.268 C 
ATOM     14  O   UNL     1       5.875  -2.520   0.684  0.00  0.00    -0.268 OA
ATOM     15  C   UNL     1       7.258  -0.731   0.051  0.00  0.00    +0.105 A 
ATOM     16  C   UNL     1       8.430  -0.928   0.717  0.00  0.00    +0.036 A 
ATOM     17  C   UNL     1       9.254   0.172   0.425  0.00  0.00    -0.025 A 
ATOM     18  C   UNL     1      10.629   0.731   0.717  0.00  0.00    +0.043 C 
ATOM     19  C   UNL     1      10.869   1.793  -0.377  0.00  0.00    -0.026 C 
ATOM     20  C   UNL     1      11.655   2.983   0.178  0.00  0.00    +0.011 C 
ATOM     21  C   UNL     1      11.587   1.183  -1.583  0.00  0.00    +0.011 C 
ATOM     22  C   UNL     1       9.428   2.208  -0.745  0.00  0.00    +0.060 C 
ATOM     23  C   UNL     1       8.571   1.006  -0.399  0.00  0.00    +0.023 A 
ATOM     24  N   UNL     1       7.351   0.474  -0.629  0.00  0.00    -0.338 N 
ATOM     25  C   UNL     1       6.239   0.993  -1.431  0.00  0.00    +0.141 C 
ATOM     26  C   UNL     1       5.424  -0.179  -1.977  0.00  0.00    +0.137 C 
ATOM     27  N   UNL     1       3.635  -2.860  -1.640  0.00  0.00    -0.240 NA
ATOM     28  C   UNL     1       2.455  -3.452  -1.648  0.00  0.00    +0.113 A 
ATOM     29  C   UNL     1       1.405  -2.949  -0.912  0.00  0.00    +0.029 A 
BRANCH  10  30
ATOM     30  C   UNL     1       3.123   0.055   0.638  0.00  0.00    +0.195 C 
BRANCH  30  31
ATOM     31  O   UNL     1       2.843   1.206  -0.161  0.00  0.00    -0.390 OA
ATOM     32  H   UNL     1       3.026   1.980   0.390  0.00  0.00    +0.210 HD
ENDBRANCH  30  31
ENDBRANCH  10  30
ENDBRANCH   7   9
BRANCH   1  37
ATOM     33  C   UNL     1      -5.919   1.537  -0.099  0.00  0.00    +0.048 A 
ATOM     34  C   UNL     1      -5.183   2.712  -0.140  0.00  0.00    +0.136 A 
ATOM     35  N   UNL     1      -3.883   2.701   0.086  0.00  0.00    -0.238 NA
ATOM     36  C   UNL     1      -3.231   1.579   0.349  0.00  0.00    +0.123 A 
ATOM     37  N   UNL     1      -1.857   1.617   0.576  0.00  0.00    -0.295 N 
ATOM     38  H   UNL     1      -1.368   2.446   0.452  0.00  0.00    +0.154 HD
ATOM     39  C   UNL     1      -3.904   0.362   0.401  0.00  0.00    +0.045 A 
ATOM     40  C   UNL     1      -5.267   0.335   0.174  0.00  0.00    +0.028 A 
BRANCH  33  43
ATOM     41  C   UNL     1      -7.692   1.455   2.079  0.00  0.00    +0.029 C 
ATOM     42  C   UNL     1      -7.920   0.764   0.733  0.00  0.00    +0.084 C 
ATOM     43  N   UNL     1      -7.299   1.558  -0.335  0.00  0.00    -0.323 N 
ATOM     44  C   UNL     1      -7.523   0.831  -1.591  0.00  0.00    +0.121 C 
ATOM     45  C   UNL     1      -9.025   0.706  -1.851  0.00  0.00    +0.104 C 
ATOM     46  N   UNL     1      -9.646  -0.087  -0.783  0.00  0.00    -0.292 NA
ATOM     47  C   UNL     1      -9.422   0.640   0.473  0.00  0.00    +0.107 C 
BRANCH  46  48
ATOM     48  C   UNL     1     -11.094  -0.065  -1.030  0.00  0.00    +0.108 C 
ATOM     49  C   UNL     1     -11.868  -1.173  -0.290  0.00  0.00    +0.181 C 
ATOM     50  O   UNL     1     -12.586  -1.342  -1.529  0.00  0.00    -0.377 OA
ATOM     51  C   UNL     1     -11.516  -0.790  -2.322  0.00  0.00    +0.181 C 
ENDBRANCH  46  48
ENDBRANCH  33  43
ENDBRANCH   1  37
TORSDOF 6
