REMARK  Name = m4
REMARK  9 active torsions:
REMARK  status: ('A' for Active; 'I' for Inactive)
REMARK    1  A    between atoms: C_1  and  C_2
REMARK    2  A    between atoms: C_3  and  C_4
REMARK    3  A    between atoms: C_8  and  C_9
REMARK    4  A    between atoms: C_20  and  C_21
REMARK    5  A    between atoms: C_21  and  C_22
REMARK    6  A    between atoms: C_21  and  C_23
REMARK    7  A    between atoms: C_21  and  O_24
REMARK    8  A    between atoms: C_29  and  N_30
REMARK    9  A    between atoms: N_40  and  C_41
REMARK                            x       y       z     vdW  Elec       q    Type
REMARK                         _______ _______ _______ _____ _____    ______ ____
ROOT
ATOM      1  C   UNL     1       1.665   1.889  -0.598  0.00  0.00    +0.027 A 
ATOM      2  C   UNL     1       2.617   0.956  -0.151  0.00  0.00    +0.014 A 
ATOM      3  C   UNL     1       3.747   1.395   0.562  0.00  0.00    +0.060 A 
ATOM      4  N   UNL     1       4.498   0.286   0.864  0.00  0.00    -0.357 N 
ATOM      5  C   UNL     1       3.895  -0.835   0.367  0.00  0.00    +0.021 A 
ATOM      6  C   UNL     1       4.393  -2.258   0.481  0.00  0.00    +0.059 C 
ATOM      7  C   UNL     1       3.230  -3.207   0.168  0.00  0.00    +0.026 C 
ATOM      8  C   UNL     1       2.566  -2.786  -1.147  0.00  0.00    +0.011 C 
ATOM      9  C   UNL     1       1.821  -1.462  -0.937  0.00  0.00    +0.038 C 
ATOM     10  H   UNL     1       5.333   0.296   1.357  0.00  0.00    +0.166 HD
ATOM     11  C   UNL     1       3.905   2.766   0.828  0.00  0.00    +0.063 A 
ATOM     12  C   UNL     1       2.948   3.676   0.381  0.00  0.00    +0.054 A 
ATOM     13  C   UNL     1       2.754  -0.491  -0.261  0.00  0.00    -0.018 A 
ATOM     14  C   UNL     1       1.841   3.244  -0.324  0.00  0.00    +0.132 A 
ATOM     15  F   UNL     1       0.924   4.140  -0.750  0.00  0.00    -0.205 F 
ENDROOT
BRANCH   1  22
ATOM     16  C   UNL     1      -0.749   1.176   0.828  0.00  0.00    +0.046 C 
ATOM     17  C   UNL     1      -0.692   1.087  -0.675  0.00  0.00    -0.019 A 
ATOM     18  C   UNL     1      -1.800   0.655  -1.388  0.00  0.00    +0.058 A 
ATOM     19  C   UNL     1      -1.747   0.578  -2.775  0.00  0.00    +0.027 A 
ATOM     20  C   UNL     1      -0.589   0.921  -3.447  0.00  0.00    +0.003 A 
ATOM     21  C   UNL     1       0.521   1.347  -2.745  0.00  0.00    +0.009 A 
ATOM     22  C   UNL     1       0.476   1.433  -1.353  0.00  0.00    -0.010 A 
BRANCH  18  23
ATOM     23  N   UNL     1      -2.976   0.305  -0.711  0.00  0.00    -0.228 N 
ATOM     24  C   UNL     1      -3.898   1.249  -0.464  0.00  0.00    +0.337 A 
ATOM     25  O   UNL     1      -3.685   2.384  -0.843  0.00  0.00    -0.246 OA
ATOM     26  N   UNL     1      -5.053   0.989   0.174  0.00  0.00    -0.293 N 
ATOM     27  C   UNL     1      -6.015   2.070   0.402  0.00  0.00    +0.154 C 
ATOM     28  C   UNL     1      -5.339  -0.292   0.624  0.00  0.00    +0.093 A 
ATOM     29  C   UNL     1      -4.403  -1.315   0.395  0.00  0.00    +0.066 A 
ATOM     30  C   UNL     1      -4.663  -2.611   0.835  0.00  0.00    +0.015 A 
ATOM     31  C   UNL     1      -5.843  -2.880   1.496  0.00  0.00    +0.004 A 
ATOM     32  C   UNL     1      -6.768  -1.872   1.722  0.00  0.00    +0.040 A 
ATOM     33  C   UNL     1      -6.522  -0.582   1.291  0.00  0.00    +0.148 A 
ATOM     34  F   UNL     1      -7.429   0.394   1.517  0.00  0.00    -0.203 F 
ATOM     35  C   UNL     1      -3.157  -0.973  -0.315  0.00  0.00    +0.269 A 
ATOM     36  O   UNL     1      -2.314  -1.821  -0.538  0.00  0.00    -0.266 OA
ENDBRANCH  18  23
ENDBRANCH   1  22
BRANCH  11  37
ATOM     37  C   UNL     1       5.080   3.240   1.580  0.00  0.00    +0.244 C 
ATOM     38  O   UNL     1       5.914   2.446   1.970  0.00  0.00    -0.270 OA
ATOM     39  N   UNL     1       5.231   4.555   1.835  0.00  0.00    -0.325 N 
ATOM     40  H   UNL     1       6.005   4.868   2.330  0.00  0.00    +0.145 HD
ATOM     41  H   UNL     1       4.566   5.189   1.524  0.00  0.00    +0.145 HD
ENDBRANCH  11  37
BRANCH   7  42
ATOM     42  C   UNL     1       3.760  -4.636   0.037  0.00  0.00    +0.064 C 
ATOM     43  C   UNL     1       2.600  -5.583  -0.275  0.00  0.00    +0.041 C 
ATOM     44  C   UNL     1       4.424  -5.056   1.350  0.00  0.00    +0.041 C 
BRANCH  42  45
ATOM     45  O   UNL     1       4.719  -4.693  -1.021  0.00  0.00    -0.389 OA
ATOM     46  H   UNL     1       5.432  -4.083  -0.786  0.00  0.00    +0.210 HD
ENDBRANCH  42  45
ENDBRANCH   7  42
TORSDOF 5
