REMARK  Name = m5
REMARK  21 active torsions:
REMARK  status: ('A' for Active; 'I' for Inactive)
REMARK    1  A    between atoms: C_1  and  C_2
REMARK    2  A    between atoms: C_2  and  C_4
REMARK    3  A    between atoms: C_5  and  C_6
REMARK    4  A    between atoms: C_15  and  N_16
REMARK    5  A    between atoms: N_19  and  C_20
REMARK    6  A    between atoms: C_20  and  C_21
REMARK    7  A    between atoms: C_21  and  O_22
REMARK    8  A    between atoms: O_22  and  C_23
REMARK    9  A    between atoms: C_23  and  C_24
REMARK   10  A    between atoms: C_24  and  O_25
REMARK   11  A    between atoms: O_25  and  C_26
REMARK   12  A    between atoms: C_26  and  C_27
REMARK   13  A    between atoms: C_27  and  O_28
REMARK   14  A    between atoms: O_28  and  C_29
REMARK   15  A    between atoms: C_29  and  C_30
REMARK   16  A    between atoms: C_30  and  N_31
REMARK   17  A    between atoms: C_32  and  C_34
REMARK   18  A    between atoms: C_34  and  O_35
REMARK   19  A    between atoms: O_35  and  C_36
REMARK   20  A    between atoms: N_44  and  C_45
REMARK   21  A    between atoms: N_61  and  C_62
REMARK                            x       y       z     vdW  Elec       q    Type
REMARK                         _______ _______ _______ _____ _____    ______ ____
ROOT
ATOM      1  C   UNL     1       0.254  -3.845  -0.582  0.00  0.00    +0.175 C 
ENDROOT
BRANCH   1   2
ATOM      2  C   UNL     1       1.312  -3.952  -1.682  0.00  0.00    +0.112 C 
BRANCH   2   6
ATOM      3  N   UNL     1       5.438  -4.068  -0.983  0.00  0.00    -0.326 N 
ATOM      4  C   UNL     1       4.535  -4.170   0.171  0.00  0.00    +0.120 C 
ATOM      5  C   UNL     1       3.131  -4.543  -0.306  0.00  0.00    +0.103 C 
ATOM      6  N   UNL     1       2.603  -3.477  -1.167  0.00  0.00    -0.297 NA
ATOM      7  C   UNL     1       3.505  -3.375  -2.320  0.00  0.00    +0.103 C 
ATOM      8  C   UNL     1       4.910  -3.002  -1.843  0.00  0.00    +0.120 C 
BRANCH   3  23
ATOM      9  C   UNL     1      13.365   3.078  -0.551  0.00  0.00    +0.085 A 
ATOM     10  C   UNL     1      14.154   2.228   0.349  0.00  0.00    +0.264 A 
ATOM     11  O   UNL     1      15.258   2.590   0.713  0.00  0.00    -0.267 OA
ATOM     12  N   UNL     1      13.658   1.052   0.779  0.00  0.00    -0.289 N 
ATOM     13  C   UNL     1      12.418   0.622   0.382  0.00  0.00    +0.149 A 
ATOM     14  C   UNL     1      11.628   1.408  -0.488  0.00  0.00    +0.040 A 
ATOM     15  C   UNL     1      10.364   0.925  -0.868  0.00  0.00    +0.126 A 
ATOM     16  N   UNL     1       9.966  -0.240  -0.398  0.00  0.00    -0.222 NA
ATOM     17  C   UNL     1      10.736  -0.952   0.419  0.00  0.00    +0.222 A 
ATOM     18  N   UNL     1      10.271  -2.166   0.882  0.00  0.00    -0.268 N 
ATOM     19  H   UNL     1      10.790  -2.670   1.527  0.00  0.00    +0.156 HD
ATOM     20  C   UNL     1       9.053  -2.666   0.422  0.00  0.00    +0.125 A 
ATOM     21  N   UNL     1       8.308  -1.932  -0.388  0.00  0.00    -0.238 NA
ATOM     22  C   UNL     1       7.151  -2.367  -0.851  0.00  0.00    +0.136 A 
ATOM     23  C   UNL     1       6.668  -3.616  -0.492  0.00  0.00    +0.048 A 
ATOM     24  C   UNL     1       7.423  -4.416   0.365  0.00  0.00    +0.028 A 
ATOM     25  C   UNL     1       8.632  -3.929   0.826  0.00  0.00    +0.045 A 
ATOM     26  N   UNL     1      11.935  -0.540   0.805  0.00  0.00    -0.196 NA
ATOM     27  C   UNL     1      12.106   2.646  -0.958  0.00  0.00    -0.023 A 
ATOM     28  C   UNL     1      11.270   3.489  -1.886  0.00  0.00    +0.045 C 
BRANCH  12  29
ATOM     29  C   UNL     1      14.457   0.218   1.681  0.00  0.00    +0.092 C 
ATOM     30  C   UNL     1      14.819   1.011   2.953  0.00  0.00    +0.025 C 
ATOM     31  C   UNL     1      16.259   0.551   3.291  0.00  0.00    +0.002 C 
ATOM     32  C   UNL     1      16.911   0.414   1.893  0.00  0.00    +0.002 C 
ATOM     33  C   UNL     1      15.787  -0.162   1.007  0.00  0.00    +0.025 C 
ENDBRANCH  12  29
BRANCH   9  35
ATOM     34  C   UNL     1      14.188   5.458  -0.029  0.00  0.00    +0.092 C 
ATOM     35  C   UNL     1      13.896   4.358  -1.017  0.00  0.00    +0.166 C 
ATOM     36  O   UNL     1      14.102   4.535  -2.200  0.00  0.00    -0.292 OA
ENDBRANCH   9  35
ENDBRANCH   3  23
ENDBRANCH   2   6
ENDBRANCH   1   2
BRANCH   1  37
ATOM     37  O   UNL     1       0.047  -2.471  -0.251  0.00  0.00    -0.376 OA
BRANCH  37  38
ATOM     38  C   UNL     1      -0.946  -2.438   0.776  0.00  0.00    +0.188 C 
BRANCH  38  39
ATOM     39  C   UNL     1      -1.216  -0.987   1.178  0.00  0.00    +0.188 C 
BRANCH  39  40
ATOM     40  O   UNL     1      -1.791  -0.285   0.074  0.00  0.00    -0.375 OA
BRANCH  40  41
ATOM     41  C   UNL     1      -2.018   1.057   0.510  0.00  0.00    +0.188 C 
BRANCH  41  42
ATOM     42  C   UNL     1      -2.636   1.866  -0.632  0.00  0.00    +0.188 C 
BRANCH  42  43
ATOM     43  O   UNL     1      -3.930   1.344  -0.940  0.00  0.00    -0.376 OA
BRANCH  43  44
ATOM     44  C   UNL     1      -4.453   2.138  -2.007  0.00  0.00    +0.178 C 
BRANCH  44  45
ATOM     45  C   UNL     1      -5.844   1.629  -2.388  0.00  0.00    +0.132 C 
BRANCH  45  46
ATOM     46  N   UNL     1      -6.763   1.835  -1.266  0.00  0.00    -0.310 N 
ATOM     47  H   UNL     1      -6.444   2.242  -0.445  0.00  0.00    +0.149 HD
ATOM     48  C   UNL     1      -8.053   1.460  -1.373  0.00  0.00    +0.251 C 
ATOM     49  O   UNL     1      -8.454   0.952  -2.399  0.00  0.00    -0.272 OA
BRANCH  48  50
ATOM     50  C   UNL     1      -8.999   1.673  -0.219  0.00  0.00    +0.324 C 
BRANCH  50  51
ATOM     51  O   UNL     1     -10.299   1.198  -0.575  0.00  0.00    -0.482 OA
BRANCH  51  52
ATOM     52  C   UNL     1     -11.102   1.414   0.496  0.00  0.00    +0.134 A 
ATOM     53  C   UNL     1     -12.445   1.056   0.449  0.00  0.00    +0.091 A 
ATOM     54  C   UNL     1     -13.309   0.430  -0.569  0.00  0.00    +0.258 C 
ATOM     55  N   UNL     1     -14.549   0.304  -0.062  0.00  0.00    -0.222 N 
ATOM     56  C   UNL     1     -14.610   0.785   1.193  0.00  0.00    +0.255 C 
ATOM     57  O   UNL     1     -15.599   0.803   1.898  0.00  0.00    -0.270 OA
ATOM     58  O   UNL     1     -12.959   0.085  -1.680  0.00  0.00    -0.269 OA
ATOM     59  C   UNL     1     -13.270   1.280   1.572  0.00  0.00    +0.053 A 
ATOM     60  C   UNL     1     -12.741   1.865   2.709  0.00  0.00    +0.014 A 
ATOM     61  C   UNL     1     -11.401   2.225   2.742  0.00  0.00    +0.004 A 
ATOM     62  C   UNL     1     -10.588   2.003   1.651  0.00  0.00    +0.046 A 
BRANCH  55  63
ATOM     63  C   UNL     1     -15.684  -0.277  -0.783  0.00  0.00    +0.171 C 
ATOM     64  C   UNL     1     -16.909   0.569  -0.559  0.00  0.00    +0.240 C 
ATOM     65  O   UNL     1     -17.141   1.491  -1.311  0.00  0.00    -0.273 OA
ATOM     66  N   UNL     1     -17.749   0.322   0.458  0.00  0.00    -0.255 N 
ATOM     67  H   UNL     1     -18.523   0.895   0.573  0.00  0.00    +0.158 HD
ATOM     68  C   UNL     1     -17.561  -0.687   1.322  0.00  0.00    +0.219 C 
ATOM     69  O   UNL     1     -18.362  -0.863   2.215  0.00  0.00    -0.275 OA
ATOM     70  C   UNL     1     -16.372  -1.605   1.205  0.00  0.00    +0.098 C 
ATOM     71  C   UNL     1     -15.949  -1.695  -0.265  0.00  0.00    +0.041 C 
ENDBRANCH  55  63
ENDBRANCH  51  52
ENDBRANCH  50  51
ENDBRANCH  48  50
ENDBRANCH  45  46
ENDBRANCH  44  45
ENDBRANCH  43  44
ENDBRANCH  42  43
ENDBRANCH  41  42
ENDBRANCH  40  41
ENDBRANCH  39  40
ENDBRANCH  38  39
ENDBRANCH  37  38
ENDBRANCH   1  37
TORSDOF 19
