REMARK  Name = m6
REMARK  9 active torsions:
REMARK  status: ('A' for Active; 'I' for Inactive)
REMARK    1  A    between atoms: C_1  and  C_2
REMARK    2  A    between atoms: C_2  and  C_4
REMARK    3  A    between atoms: C_5  and  C_6
REMARK    4  A    between atoms: C_15  and  N_16
REMARK    5  A    between atoms: C_20  and  C_22
REMARK    6  A    between atoms: C_22  and  N_23
REMARK    7  A    between atoms: N_23  and  C_24
REMARK    8  A    between atoms: N_32  and  C_33
REMARK    9  A    between atoms: N_49  and  C_50
REMARK                            x       y       z     vdW  Elec       q    Type
REMARK                         _______ _______ _______ _____ _____    ______ ____
ROOT
ATOM      1  N   UNL     1       0.433  -3.010  -1.463  0.00  0.00    -0.326 N 
ATOM      2  C   UNL     1      -0.458  -3.132  -0.304  0.00  0.00    +0.124 C 
ATOM      3  C   UNL     1      -1.896  -3.356  -0.782  0.00  0.00    +0.126 C 
ATOM      4  N   UNL     1      -2.264  -2.251  -1.683  0.00  0.00    -0.297 N 
ATOM      5  C   UNL     1      -3.421  -1.580  -1.523  0.00  0.00    +0.233 C 
ATOM      6  O   UNL     1      -3.705  -0.673  -2.277  0.00  0.00    -0.274 OA
ATOM      7  C   UNL     1      -1.327  -1.904  -2.763  0.00  0.00    +0.126 C 
ATOM      8  C   UNL     1       0.076  -1.770  -2.162  0.00  0.00    +0.124 C 
ENDROOT
BRANCH   1  23
ATOM      9  C   UNL     1       9.428   2.647  -0.384  0.00  0.00    +0.085 A 
ATOM     10  C   UNL     1      10.078   1.570   0.372  0.00  0.00    +0.264 A 
ATOM     11  O   UNL     1      11.231   1.699   0.743  0.00  0.00    -0.267 OA
ATOM     12  N   UNL     1       9.402   0.443   0.665  0.00  0.00    -0.289 N 
ATOM     13  C   UNL     1       8.103   0.275   0.258  0.00  0.00    +0.149 A 
ATOM     14  C   UNL     1       7.443   1.285  -0.478  0.00  0.00    +0.040 A 
ATOM     15  C   UNL     1       6.111   1.066  -0.875  0.00  0.00    +0.126 A 
ATOM     16  N   UNL     1       5.534  -0.072  -0.544  0.00  0.00    -0.222 NA
ATOM     17  C   UNL     1       6.187  -1.000   0.149  0.00  0.00    +0.222 A 
ATOM     18  N   UNL     1       5.534  -2.172   0.468  0.00  0.00    -0.268 N 
ATOM     19  H   UNL     1       5.971  -2.835   1.025  0.00  0.00    +0.156 HD
ATOM     20  C   UNL     1       4.245  -2.406  -0.011  0.00  0.00    +0.125 A 
ATOM     21  N   UNL     1       3.621  -1.461  -0.696  0.00  0.00    -0.238 NA
ATOM     22  C   UNL     1       2.403  -1.639  -1.173  0.00  0.00    +0.136 A 
ATOM     23  C   UNL     1       1.726  -2.831  -0.960  0.00  0.00    +0.048 A 
ATOM     24  C   UNL     1       2.350  -3.847  -0.238  0.00  0.00    +0.028 A 
ATOM     25  C   UNL     1       3.628  -3.626   0.241  0.00  0.00    +0.045 A 
ATOM     26  N   UNL     1       7.441  -0.840   0.544  0.00  0.00    -0.196 NA
ATOM     27  C   UNL     1       8.111   2.481  -0.801  0.00  0.00    -0.023 A 
ATOM     28  C   UNL     1       7.414   3.562  -1.585  0.00  0.00    +0.045 C 
BRANCH  12  29
ATOM     29  C   UNL     1      10.064  -0.620   1.425  0.00  0.00    +0.092 C 
ATOM     30  C   UNL     1      10.566  -0.070   2.776  0.00  0.00    +0.025 C 
ATOM     31  C   UNL     1      11.915  -0.796   3.004  0.00  0.00    +0.002 C 
ATOM     32  C   UNL     1      12.519  -0.852   1.579  0.00  0.00    +0.002 C 
ATOM     33  C   UNL     1      11.306  -1.117   0.664  0.00  0.00    +0.025 C 
ENDBRANCH  12  29
BRANCH   9  35
ATOM     34  C   UNL     1      10.637   4.774   0.410  0.00  0.00    +0.092 C 
ATOM     35  C   UNL     1      10.157   3.875  -0.701  0.00  0.00    +0.166 C 
ATOM     36  O   UNL     1      10.375   4.171  -1.857  0.00  0.00    -0.292 OA
ENDBRANCH   9  35
ENDBRANCH   1  23
BRANCH   5  37
ATOM     37  C   UNL     1      -4.363  -1.955  -0.409  0.00  0.00    +0.197 C 
BRANCH  37  38
ATOM     38  N   UNL     1      -5.540  -1.083  -0.449  0.00  0.00    -0.335 N 
ATOM     39  H   UNL     1      -5.611  -0.396  -1.129  0.00  0.00    +0.147 HD
BRANCH  38  40
ATOM     40  C   UNL     1      -6.552  -1.241   0.486  0.00  0.00    +0.040 A 
ATOM     41  C   UNL     1      -7.671  -0.411   0.456  0.00  0.00    +0.070 A 
ATOM     42  C   UNL     1      -8.104   0.702  -0.405  0.00  0.00    +0.256 C 
ATOM     43  N   UNL     1      -9.302   1.139   0.025  0.00  0.00    -0.222 N 
ATOM     44  C   UNL     1      -9.718   0.435   1.094  0.00  0.00    +0.255 C 
ATOM     45  O   UNL     1     -10.760   0.606   1.694  0.00  0.00    -0.270 OA
ATOM     46  O   UNL     1      -7.484   1.150  -1.349  0.00  0.00    -0.269 OA
ATOM     47  C   UNL     1      -8.697  -0.585   1.410  0.00  0.00    +0.051 A 
ATOM     48  C   UNL     1      -8.581  -1.570   2.375  0.00  0.00    +0.014 A 
ATOM     49  C   UNL     1      -7.459  -2.389   2.398  0.00  0.00    +0.003 A 
ATOM     50  C   UNL     1      -6.455  -2.230   1.468  0.00  0.00    +0.024 A 
BRANCH  43  51
ATOM     51  C   UNL     1     -10.052   2.238  -0.587  0.00  0.00    +0.171 C 
ATOM     52  C   UNL     1     -10.615   3.125   0.492  0.00  0.00    +0.240 C 
ATOM     53  O   UNL     1      -9.953   4.052   0.906  0.00  0.00    -0.273 OA
ATOM     54  N   UNL     1     -11.836   2.908   1.005  0.00  0.00    -0.255 N 
ATOM     55  H   UNL     1     -12.159   3.497   1.704  0.00  0.00    +0.158 HD
ATOM     56  C   UNL     1     -12.627   1.908   0.588  0.00  0.00    +0.219 C 
ATOM     57  O   UNL     1     -13.724   1.772   1.086  0.00  0.00    -0.275 OA
ATOM     58  C   UNL     1     -12.179   0.952  -0.485  0.00  0.00    +0.098 C 
ATOM     59  C   UNL     1     -11.203   1.670  -1.423  0.00  0.00    +0.041 C 
ENDBRANCH  43  51
ENDBRANCH  38  40
ENDBRANCH  37  38
ENDBRANCH   5  37
TORSDOF 7
