REMARK  Name = m7
REMARK  12 active torsions:
REMARK  status: ('A' for Active; 'I' for Inactive)
REMARK    1  A    between atoms: C_1  and  C_2
REMARK    2  A    between atoms: C_2  and  O_3
REMARK    3  A    between atoms: O_3  and  C_4
REMARK    4  A    between atoms: C_4  and  C_6
REMARK    5  A    between atoms: C_7  and  C_8
REMARK    6  A    between atoms: C_13  and  C_14
REMARK    7  A    between atoms: C_17  and  O_18
REMARK    8  A    between atoms: O_18  and  C_19
REMARK    9  A    between atoms: C_19  and  C_20
REMARK   10  A    between atoms: C_23  and  O_24
REMARK   11  A    between atoms: O_24  and  C_25
REMARK   12  A    between atoms: C_30  and  C_31
REMARK                            x       y       z     vdW  Elec       q    Type
REMARK                         _______ _______ _______ _____ _____    ______ ____
ROOT
ATOM      1  C   UNL     1       3.996  -0.022  -0.642  0.00  0.00    +0.085 C 
ATOM      2  C   UNL     1       2.500   0.085  -0.451  0.00  0.00    +0.168 C 
ATOM      3  N   UNL     1       1.712  -1.176  -0.538  0.00  0.00    -0.274 N 
ATOM      4  C   UNL     1       2.446  -2.315  -0.776  0.00  0.00    +0.178 A 
ATOM      5  S   UNL     1       1.234  -3.621  -0.816  0.00  0.00    -0.046 S 
ATOM      6  C   UNL     1      -0.215  -2.621  -0.516  0.00  0.00    +0.081 A 
ATOM      7  C   UNL     1      -1.517  -2.995  -0.419  0.00  0.00    +0.028 C 
ATOM      8  N   UNL     1       3.746  -2.331  -0.926  0.00  0.00    -0.228 NA
ATOM      9  C   UNL     1       0.383  -1.284  -0.402  0.00  0.00    +0.268 A 
ATOM     10  O   UNL     1      -0.307  -0.304  -0.192  0.00  0.00    -0.266 OA
ATOM     11  C   UNL     1       4.528  -1.260  -0.870  0.00  0.00    +0.053 C 
ATOM     12  C   UNL     1       6.015  -1.410  -1.059  0.00  0.00    +0.066 C 
ENDROOT
BRANCH   7  13
ATOM     13  C   UNL     1      -2.570  -1.975  -0.344  0.00  0.00    -0.020 A 
ATOM     14  C   UNL     1      -3.688  -2.178   0.475  0.00  0.00    +0.057 A 
ATOM     15  C   UNL     1      -4.672  -1.211   0.545  0.00  0.00    +0.162 A 
ATOM     16  C   UNL     1      -4.558  -0.043  -0.208  0.00  0.00    +0.163 A 
ATOM     17  C   UNL     1      -3.454   0.156  -1.026  0.00  0.00    +0.050 A 
ATOM     18  C   UNL     1      -2.464  -0.799  -1.098  0.00  0.00    +0.012 A 
BRANCH  15  19
ATOM     19  O   UNL     1      -5.755  -1.402   1.345  0.00  0.00    -0.491 OA
ATOM     20  C   UNL     1      -5.584  -2.672   1.977  0.00  0.00    +0.277 C 
ENDBRANCH  15  19
BRANCH  16  21
ATOM     21  O   UNL     1      -5.531   0.902  -0.141  0.00  0.00    -0.479 OA
BRANCH  21  22
ATOM     22  C   UNL     1      -5.135   1.964  -1.013  0.00  0.00    +0.324 C 
BRANCH  22  23
ATOM     23  C   UNL     1      -6.177   3.052  -0.985  0.00  0.00    +0.248 C 
ATOM     24  O   UNL     1      -7.162   2.930  -0.288  0.00  0.00    -0.272 OA
ATOM     25  N   UNL     1      -6.015   4.160  -1.735  0.00  0.00    -0.327 N 
ATOM     26  H   UNL     1      -6.686   4.860  -1.717  0.00  0.00    +0.145 HD
ATOM     27  H   UNL     1      -5.227   4.257  -2.292  0.00  0.00    +0.145 HD
ENDBRANCH  22  23
ENDBRANCH  21  22
ENDBRANCH  16  21
ENDBRANCH   7  13
BRANCH   2  28
ATOM     28  C   UNL     1       2.244   0.700   0.901  0.00  0.00    +0.017 A 
ATOM     29  S   UNL     1       2.085  -0.102   2.488  0.00  0.00    -0.099 S 
ATOM     30  C   UNL     1       1.805   1.357   3.479  0.00  0.00    +0.045 A 
ATOM     31  C   UNL     1       1.843   2.341   2.548  0.00  0.00    +0.008 A 
ATOM     32  C   UNL     1       2.069   2.004   1.226  0.00  0.00    +0.013 A 
ENDBRANCH   2  28
BRANCH   1  33
ATOM     33  C   UNL     1       4.815   1.117  -0.580  0.00  0.00    +0.339 C 
ATOM     34  O   UNL     1       6.027   0.996  -0.586  0.00  0.00    -0.245 OA
BRANCH  33  35
ATOM     35  O   UNL     1       4.260   2.346  -0.515  0.00  0.00    -0.462 OA
BRANCH  35  37
ATOM     36  C   UNL     1       4.773   4.705  -0.388  0.00  0.00    +0.048 C 
ATOM     37  C   UNL     1       5.337   3.284  -0.464  0.00  0.00    +0.229 C 
ENDBRANCH  35  37
ENDBRANCH  33  35
ENDBRANCH   1  33
TORSDOF 9
