REMARK  Name = m8
REMARK  9 active torsions:
REMARK  status: ('A' for Active; 'I' for Inactive)
REMARK    1  A    between atoms: C_1  and  O_2
REMARK    2  A    between atoms: O_2  and  C_3
REMARK    3  A    between atoms: C_3  and  C_4
REMARK    4  A    between atoms: C_5  and  C_6
REMARK    5  A    between atoms: C_10  and  C_11
REMARK    6  A    between atoms: C_13  and  O_14
REMARK    7  A    between atoms: O_14  and  C_15
REMARK    8  A    between atoms: C_25  and  C_26
REMARK    9  A    between atoms: C_26  and  N_27
REMARK                            x       y       z     vdW  Elec       q    Type
REMARK                         _______ _______ _______ _____ _____    ______ ____
ROOT
ATOM      1  C   UNL     1      -1.048   0.142   1.106  0.00  0.00    +0.011 A 
ATOM      2  C   UNL     1      -2.231  -0.518   1.079  0.00  0.00    +0.064 A 
ATOM      3  N   UNL     1      -2.061  -1.723   0.486  0.00  0.00    -0.230 N 
ATOM      4  C   UNL     1      -0.736  -1.856   0.126  0.00  0.00    +0.114 A 
ATOM      5  C   UNL     1      -0.324  -3.046  -0.508  0.00  0.00    +0.144 A 
ATOM      6  N   UNL     1      -1.214  -3.997  -0.740  0.00  0.00    -0.217 NA
ATOM      7  C   UNL     1      -2.491  -3.857  -0.388  0.00  0.00    +0.245 A 
ATOM      8  N   UNL     1       0.995  -3.216  -0.883  0.00  0.00    -0.341 N 
ATOM      9  H   UNL     1       1.272  -4.037  -1.320  0.00  0.00    +0.144 HD
ATOM     10  H   UNL     1       1.643  -2.516  -0.711  0.00  0.00    +0.144 HD
ATOM     11  N   UNL     1      -2.936  -2.781   0.202  0.00  0.00    -0.155 NA
ATOM     12  C   UNL     1      -0.077  -0.687   0.510  0.00  0.00    +0.025 A 
ENDROOT
BRANCH  12  13
ATOM     13  C   UNL     1       1.354  -0.379   0.327  0.00  0.00    +0.023 A 
ATOM     14  S   UNL     1       2.091   0.887  -0.688  0.00  0.00    -0.085 S 
ATOM     15  C   UNL     1       3.799   0.568  -0.332  0.00  0.00    +0.062 A 
ATOM     16  C   UNL     1       3.759  -0.523   0.563  0.00  0.00    -0.006 A 
ATOM     17  C   UNL     1       5.007  -1.012   1.026  0.00  0.00    +0.012 A 
ATOM     18  C   UNL     1       6.173  -0.445   0.616  0.00  0.00    -0.046 A 
ATOM     19  C   UNL     1       6.188   0.628  -0.265  0.00  0.00    +0.050 A 
ATOM     20  C   UNL     1       7.478  -0.993   1.131  0.00  0.00    +0.044 C 
ATOM     21  C   UNL     1       4.990   1.137  -0.742  0.00  0.00    +0.135 A 
ATOM     22  C   UNL     1       2.425  -0.997   0.887  0.00  0.00    +0.025 A 
BRANCH  21  23
ATOM     23  O   UNL     1       4.987   2.186  -1.606  0.00  0.00    -0.494 OA
ATOM     24  C   UNL     1       6.353   2.541  -1.831  0.00  0.00    +0.277 C 
ENDBRANCH  21  23
ENDBRANCH  12  13
BRANCH   1  25
ATOM     25  C   UNL     1      -0.812   1.516   1.679  0.00  0.00    +0.197 C 
BRANCH  25  27
ATOM     26  C   UNL     1      -0.872   3.776   1.292  0.00  0.00    +0.194 C 
ATOM     27  O   UNL     1      -1.115   2.502   0.691  0.00  0.00    -0.378 OA
ENDBRANCH  25  27
ENDBRANCH   1  25
BRANCH   2  28
ATOM     28  C   UNL     1      -3.534   0.008   1.623  0.00  0.00    +0.140 C 
BRANCH  28  29
ATOM     29  N   UNL     1      -4.174   0.866   0.616  0.00  0.00    -0.287 NA
ATOM     30  C   UNL     1      -4.451   0.017  -0.547  0.00  0.00    +0.180 C 
ATOM     31  C   UNL     1      -5.367   0.724  -1.505  0.00  0.00    +0.227 C 
ATOM     32  O   UNL     1      -5.413   0.343  -2.656  0.00  0.00    -0.274 OA
ATOM     33  N   UNL     1      -6.133   1.758  -1.137  0.00  0.00    -0.313 N 
ATOM     34  H   UNL     1      -6.712   2.172  -1.796  0.00  0.00    +0.149 HD
ATOM     35  C   UNL     1      -6.124   2.283   0.227  0.00  0.00    +0.119 C 
ATOM     36  C   UNL     1      -5.479   1.262   1.166  0.00  0.00    +0.104 C 
ENDBRANCH  28  29
ENDBRANCH   2  28
TORSDOF 6
