REMARK  Name = m9
REMARK  7 active torsions:
REMARK  status: ('A' for Active; 'I' for Inactive)
REMARK    1  A    between atoms: C_1  and  O_2
REMARK    2  A    between atoms: O_2  and  C_3
REMARK    3  A    between atoms: N_8  and  C_9
REMARK    4  A    between atoms: N_14  and  C_15
REMARK    5  A    between atoms: N_18  and  C_19
REMARK    6  A    between atoms: C_26  and  O_27
REMARK    7  A    between atoms: O_27  and  C_28
REMARK                            x       y       z     vdW  Elec       q    Type
REMARK                         _______ _______ _______ _____ _____    ______ ____
ROOT
ATOM      1  C   UNL     1       4.207  -1.319   0.195  0.00  0.00    +0.164 A 
ATOM      2  C   UNL     1       3.214  -2.302   0.088  0.00  0.00    +0.162 A 
ATOM      3  C   UNL     1       1.900  -1.955  -0.052  0.00  0.00    +0.062 A 
ATOM      4  C   UNL     1       1.542  -0.602  -0.103  0.00  0.00    +0.044 A 
ATOM      5  C   UNL     1       2.541   0.397  -0.001  0.00  0.00    +0.082 A 
ATOM      6  N   UNL     1       2.172   1.687  -0.052  0.00  0.00    -0.214 NA
ATOM      7  C   UNL     1       0.902   2.013  -0.194  0.00  0.00    +0.218 A 
ATOM      8  N   UNL     1      -0.066   1.107  -0.294  0.00  0.00    -0.199 NA
ATOM      9  N   UNL     1       0.564   3.354  -0.242  0.00  0.00    -0.311 N 
ATOM     10  H   UNL     1      -0.364   3.616  -0.347  0.00  0.00    +0.149 HD
ATOM     11  C   UNL     1       0.195  -0.191  -0.255  0.00  0.00    +0.132 A 
ATOM     12  N   UNL     1      -0.819  -1.120  -0.359  0.00  0.00    -0.326 N 
ATOM     13  H   UNL     1      -0.614  -2.068  -0.329  0.00  0.00    +0.148 HD
ATOM     14  C   UNL     1       3.881   0.018   0.149  0.00  0.00    +0.078 A 
ENDROOT
BRANCH  12  15
ATOM     15  C   UNL     1      -2.206  -0.675  -0.515  0.00  0.00    +0.074 C 
ATOM     16  C   UNL     1      -2.815  -0.401   0.864  0.00  0.00    +0.037 C 
ATOM     17  C   UNL     1      -4.295  -0.048   0.699  0.00  0.00    +0.086 C 
ATOM     18  N   UNL     1      -5.010  -1.177   0.095  0.00  0.00    -0.299 NA
ATOM     19  C   UNL     1      -4.490  -1.346  -1.266  0.00  0.00    +0.086 C 
ATOM     20  C   UNL     1      -3.021  -1.771  -1.209  0.00  0.00    +0.037 C 
BRANCH  18  21
ATOM     21  C   UNL     1      -6.414  -0.765  -0.038  0.00  0.00    +0.057 C 
ATOM     22  C   UNL     1      -6.773   0.664   0.377  0.00  0.00    +0.020 C 
ATOM     23  C   UNL     1      -7.203  -0.517   1.250  0.00  0.00    +0.020 C 
ENDBRANCH  18  21
ENDBRANCH  12  15
BRANCH   9  24
ATOM     24  C   UNL     1       1.606   4.378  -0.136  0.00  0.00    +0.073 C 
ATOM     25  C   UNL     1       1.325   5.582   0.765  0.00  0.00    +0.024 C 
ATOM     26  C   UNL     1       1.319   5.747  -0.756  0.00  0.00    +0.024 C 
ENDBRANCH   9  24
BRANCH   1  28
ATOM     27  C   UNL     1       6.273  -0.486   0.415  0.00  0.00    +0.277 C 
ATOM     28  O   UNL     1       5.506  -1.690   0.340  0.00  0.00    -0.491 OA
ENDBRANCH   1  28
BRANCH   2  29
ATOM     29  O   UNL     1       3.561  -3.617   0.137  0.00  0.00    -0.491 OA
ATOM     30  C   UNL     1       2.351  -4.367   0.017  0.00  0.00    +0.277 C 
ENDBRANCH   2  29
TORSDOF 5
