REMARK  Name = m10
REMARK  15 active torsions:
REMARK  status: ('A' for Active; 'I' for Inactive)
REMARK    1  A    between atoms: C_1  and  C_2
REMARK    2  A    between atoms: C_2  and  C_3
REMARK    3  A    between atoms: C_5  and  N_6
REMARK    4  A    between atoms: C_11  and  C_12
REMARK    5  A    between atoms: C_13  and  C_14
REMARK    6  A    between atoms: C_17  and  O_18
REMARK    7  A    between atoms: O_18  and  C_19
REMARK    8  A    between atoms: C_20  and  C_21
REMARK    9  A    between atoms: N_23  and  C_24
REMARK   10  A    between atoms: C_41  and  O_42
REMARK   11  A    between atoms: O_42  and  C_43
REMARK   12  A    between atoms: C_45  and  N_46
REMARK   13  A    between atoms: C_49  and  N_50
REMARK   14  A    between atoms: N_53  and  S_54
REMARK   15  A    between atoms: S_54  and  C_55
REMARK                            x       y       z     vdW  Elec       q    Type
REMARK                         _______ _______ _______ _____ _____    ______ ____
ROOT
ATOM      1  N   UNL     1       0.792   1.182  -0.463  0.00  0.00    -0.281 N 
ATOM      2  H   UNL     1       1.224   0.379  -0.792  0.00  0.00    +0.155 HD
ATOM      3  C   UNL     1       1.543   2.317  -0.205  0.00  0.00    +0.220 A 
ATOM      4  N   UNL     1       2.861   2.252  -0.298  0.00  0.00    -0.213 NA
ATOM      5  C   UNL     1       3.612   3.331  -0.061  0.00  0.00    +0.095 A 
ATOM      6  C   UNL     1       2.980   4.531   0.299  0.00  0.00    +0.050 A 
ATOM      7  C   UNL     1       1.603   4.547   0.388  0.00  0.00    +0.116 A 
ATOM      8  N   UNL     1       0.922   3.438   0.133  0.00  0.00    -0.223 NA
ENDROOT
BRANCH   5   9
ATOM      9  C   UNL     1       5.077   3.260  -0.169  0.00  0.00    +0.100 A 
ATOM     10  N   UNL     1       5.912   4.220  -0.699  0.00  0.00    -0.297 N 
ATOM     11  C   UNL     1       7.192   3.745  -0.597  0.00  0.00    +0.139 A 
ATOM     12  C   UNL     1       8.264   4.530  -1.064  0.00  0.00    +0.047 A 
ATOM     13  C   UNL     1       8.010   5.753  -1.605  0.00  0.00    +0.005 A 
ATOM     14  C   UNL     1       6.687   6.214  -1.690  0.00  0.00    +0.018 A 
ATOM     15  N   UNL     1       7.157   2.541  -0.037  0.00  0.00    -0.227 NA
ATOM     16  C   UNL     1       5.670   5.448  -1.238  0.00  0.00    +0.093 A 
ATOM     17  C   UNL     1       5.892   2.210   0.237  0.00  0.00    +0.099 A 
BRANCH  17  18
ATOM     18  C   UNL     1       5.438   0.946   0.864  0.00  0.00    +0.003 A 
ATOM     19  C   UNL     1       6.028  -0.260   0.503  0.00  0.00    +0.026 A 
ATOM     20  C   UNL     1       5.601  -1.446   1.100  0.00  0.00    +0.079 A 
ATOM     21  C   UNL     1       4.572  -1.415   2.052  0.00  0.00    +0.132 A 
ATOM     22  C   UNL     1       3.986  -0.205   2.400  0.00  0.00    +0.047 A 
ATOM     23  C   UNL     1       4.413   0.967   1.813  0.00  0.00    +0.014 A 
BRANCH  20  24
ATOM     24  C   UNL     1       6.226  -2.729   0.727  0.00  0.00    +0.252 C 
ATOM     25  N   UNL     1       7.215  -2.757  -0.188  0.00  0.00    -0.277 N 
ATOM     26  H   UNL     1       7.573  -1.927  -0.540  0.00  0.00    +0.155 HD
ATOM     27  O   UNL     1       5.849  -3.763   1.246  0.00  0.00    -0.270 OA
BRANCH  25  28
ATOM     28  C   UNL     1       7.727  -3.984  -0.630  0.00  0.00    +0.105 A 
ATOM     29  C   UNL     1       8.291  -4.872   0.279  0.00  0.00    +0.147 A 
ATOM     30  F   UNL     1       8.341  -4.556   1.591  0.00  0.00    -0.203 F 
ATOM     31  C   UNL     1       8.790  -6.085  -0.161  0.00  0.00    +0.040 A 
ATOM     32  C   UNL     1       8.739  -6.409  -1.504  0.00  0.00    +0.006 A 
ATOM     33  C   UNL     1       8.184  -5.526  -2.412  0.00  0.00    +0.040 A 
ATOM     34  C   UNL     1       7.678  -4.314  -1.979  0.00  0.00    +0.147 A 
ATOM     35  F   UNL     1       7.137  -3.451  -2.867  0.00  0.00    -0.203 F 
ENDBRANCH  25  28
ENDBRANCH  20  24
BRANCH  21  36
ATOM     36  O   UNL     1       4.148  -2.565   2.632  0.00  0.00    -0.494 OA
ATOM     37  C   UNL     1       3.106  -2.209   3.542  0.00  0.00    +0.277 C 
ENDBRANCH  21  36
ENDBRANCH  17  18
ENDBRANCH   5   9
BRANCH   1  42
ATOM     38  C   UNL     1      -2.513   2.095   0.877  0.00  0.00    -0.025 A 
ATOM     39  C   UNL     1      -3.333   1.215   0.186  0.00  0.00    +0.036 A 
ATOM     40  C   UNL     1      -2.785   0.327  -0.731  0.00  0.00    +0.071 A 
ATOM     41  C   UNL     1      -1.417   0.314  -0.946  0.00  0.00    +0.143 A 
ATOM     42  C   UNL     1      -0.595   1.194  -0.247  0.00  0.00    +0.076 A 
ATOM     43  C   UNL     1      -1.147   2.083   0.663  0.00  0.00    +0.032 A 
BRANCH  39  44
ATOM     44  N   UNL     1      -4.715   1.229   0.404  0.00  0.00    -0.329 N 
ATOM     45  C   UNL     1      -5.350   1.310  -0.916  0.00  0.00    +0.106 C 
ATOM     46  C   UNL     1      -6.872   1.323  -0.760  0.00  0.00    +0.038 C 
ATOM     47  C   UNL     1      -7.320   0.021  -0.089  0.00  0.00    +0.060 C 
ATOM     48  C   UNL     1      -6.571  -0.138   1.238  0.00  0.00    +0.038 C 
ATOM     49  C   UNL     1      -5.065  -0.075   0.977  0.00  0.00    +0.106 C 
BRANCH  47  50
ATOM     50  N   UNL     1      -8.766   0.071   0.165  0.00  0.00    -0.297 NA
ATOM     51  C   UNL     1      -9.423   0.120  -1.146  0.00  0.00    +0.102 C 
ATOM     52  C   UNL     1     -10.941   0.199  -0.957  0.00  0.00    +0.124 C 
ATOM     53  N   UNL     1     -11.367  -0.947  -0.137  0.00  0.00    -0.179 NA
ATOM     54  C   UNL     1     -10.628  -1.215   1.107  0.00  0.00    +0.124 C 
ATOM     55  C   UNL     1      -9.129  -1.206   0.790  0.00  0.00    +0.102 C 
BRANCH  53  56
ATOM     56  S   UNL     1     -12.638  -1.903  -0.598  0.00  0.00    +0.029 S 
ATOM     57  O   UNL     1     -12.340  -3.145   0.025  0.00  0.00    -0.158 OA
ATOM     58  O   UNL     1     -12.649  -1.751  -2.011  0.00  0.00    -0.158 OA
ATOM     59  C   UNL     1     -14.066  -1.093   0.173  0.00  0.00    +0.215 C 
ENDBRANCH  53  56
ENDBRANCH  47  50
ENDBRANCH  39  44
BRANCH  38  61
ATOM     60  C   UNL     1      -3.213   2.389   3.238  0.00  0.00    +0.009 C 
ATOM     61  C   UNL     1      -3.110   3.061   1.867  0.00  0.00    +0.034 C 
ENDBRANCH  38  61
BRANCH  41  62
ATOM     62  O   UNL     1      -0.877  -0.559  -1.839  0.00  0.00    -0.493 OA
ATOM     63  C   UNL     1      -1.960  -1.315  -2.384  0.00  0.00    +0.277 C 
ENDBRANCH  41  62
ENDBRANCH   1  42
TORSDOF 11
