REMARK  Name = m11
REMARK  6 active torsions:
REMARK  status: ('A' for Active; 'I' for Inactive)
REMARK    1  A    between atoms: C_2  and  C_3
REMARK    2  A    between atoms: C_6  and  N_7
REMARK    3  A    between atoms: C_10  and  N_11
REMARK    4  A    between atoms: N_11  and  C_12
REMARK    5  A    between atoms: C_12  and  C_13
REMARK    6  A    between atoms: C_20  and  C_21
REMARK                            x       y       z     vdW  Elec       q    Type
REMARK                         _______ _______ _______ _____ _____    ______ ____
ROOT
ATOM      1  N   UNL     1       2.243  -1.470  -0.256  0.00  0.00    -0.283 N 
ATOM      2  H   UNL     1       1.932  -2.380  -0.388  0.00  0.00    +0.155 HD
ATOM      3  C   UNL     1       1.328  -0.422  -0.210  0.00  0.00    +0.126 A 
ATOM      4  N   UNL     1       1.764   0.826  -0.130  0.00  0.00    -0.239 NA
ATOM      5  C   UNL     1       0.934   1.852  -0.089  0.00  0.00    +0.127 A 
ATOM      6  C   UNL     1      -0.430   1.661  -0.116  0.00  0.00    +0.094 A 
ATOM      7  C   UNL     1      -0.935   0.361  -0.195  0.00  0.00    +0.044 A 
ATOM      8  C   UNL     1      -0.033  -0.696  -0.242  0.00  0.00    +0.067 A 
ENDROOT
BRANCH   1  12
ATOM      9  C   UNL     1       6.230  -0.775   0.157  0.00  0.00    +0.158 A 
ATOM     10  N   UNL     1       5.793  -2.032   0.078  0.00  0.00    -0.240 NA
ATOM     11  C   UNL     1       4.506  -2.274  -0.051  0.00  0.00    +0.156 A 
ATOM     12  C   UNL     1       3.599  -1.214  -0.115  0.00  0.00    +0.142 A 
ATOM     13  N   UNL     1       4.033   0.039  -0.041  0.00  0.00    -0.236 NA
ATOM     14  C   UNL     1       5.323   0.283   0.093  0.00  0.00    +0.151 A 
BRANCH   9  16
ATOM     15  N   UNL     1       8.741  -0.302   0.417  0.00  0.00    -0.189 NA
ATOM     16  C   UNL     1       7.630  -0.511   0.302  0.00  0.00    +0.121 C 
ENDBRANCH   9  16
ENDBRANCH   1  12
BRANCH   6  17
ATOM     17  C   UNL     1      -1.366   2.841  -0.062  0.00  0.00    +0.421 C 
ATOM     18  F   UNL     1      -2.187   2.734   1.066  0.00  0.00    -0.166 F 
ATOM     19  F   UNL     1      -2.159   2.861  -1.215  0.00  0.00    -0.166 F 
ATOM     20  F   UNL     1      -0.623   4.024   0.013  0.00  0.00    -0.166 F 
ENDBRANCH   6  17
BRANCH   7  21
ATOM     21  N   UNL     1      -2.308   0.130  -0.224  0.00  0.00    -0.341 N 
ATOM     22  H   UNL     1      -2.926   0.877  -0.191  0.00  0.00    +0.146 HD
BRANCH  21  23
ATOM     23  C   UNL     1      -2.818  -1.241  -0.306  0.00  0.00    +0.134 C 
BRANCH  23  24
ATOM     24  C   UNL     1      -4.348  -1.215  -0.324  0.00  0.00    +0.149 C 
ATOM     25  O   UNL     1      -4.826  -0.598   0.871  0.00  0.00    -0.373 OA
ATOM     26  C   UNL     1      -6.248  -0.530   0.770  0.00  0.00    +0.175 C 
ATOM     27  C   UNL     1      -6.828  -1.943   0.710  0.00  0.00    +0.109 C 
ATOM     28  N   UNL     1      -6.345  -2.622  -0.500  0.00  0.00    -0.311 NA
ATOM     29  H   UNL     1      -6.578  -2.025  -1.280  0.00  0.00    +0.122 HD
ATOM     30  C   UNL     1      -4.879  -2.647  -0.412  0.00  0.00    +0.114 C 
ENDBRANCH  23  24
ENDBRANCH  21  23
ENDBRANCH   7  21
TORSDOF 6
