REMARK  Name = m12
REMARK  4 active torsions:
REMARK  status: ('A' for Active; 'I' for Inactive)
REMARK    1  A    between atoms: C_1  and  N_2
REMARK    2  A    between atoms: N_5  and  C_6
REMARK    3  A    between atoms: C_11  and  C_12
REMARK    4  A    between atoms: C_13  and  N_14
REMARK                            x       y       z     vdW  Elec       q    Type
REMARK                         _______ _______ _______ _____ _____    ______ ____
ROOT
ATOM      1  C   UNL     1       6.978  -0.867  -0.119  0.00  0.00    +0.032 A 
ATOM      2  C   UNL     1       5.908  -0.791   0.757  0.00  0.00    +0.051 A 
ATOM      3  C   UNL     1       4.756  -0.117   0.378  0.00  0.00    +0.068 A 
ATOM      4  C   UNL     1       4.678   0.474  -0.895  0.00  0.00    +0.090 A 
ATOM      5  N   UNL     1       3.453   1.051  -0.995  0.00  0.00    -0.227 NA
ATOM      6  C   UNL     1       2.782   0.857   0.117  0.00  0.00    +0.146 A 
ATOM      7  C   UNL     1       5.767   0.381  -1.767  0.00  0.00    +0.032 A 
ATOM      8  N   UNL     1       3.547   0.138   0.999  0.00  0.00    -0.338 N 
ATOM      9  H   UNL     1       3.288  -0.140   1.892  0.00  0.00    +0.167 HD
ATOM     10  C   UNL     1       6.897  -0.280  -1.380  0.00  0.00    +0.025 A 
ENDROOT
BRANCH   6  11
ATOM     11  C   UNL     1       1.415   1.338   0.376  0.00  0.00    +0.103 A 
ATOM     12  C   UNL     1       0.488   0.514   1.058  0.00  0.00    +0.262 A 
ATOM     13  O   UNL     1       0.838  -0.593   1.429  0.00  0.00    -0.267 OA
ATOM     14  N   UNL     1      -0.765   0.926   1.314  0.00  0.00    -0.321 N 
ATOM     15  H   UNL     1      -1.370   0.333   1.787  0.00  0.00    +0.169 HD
ATOM     16  C   UNL     1      -1.214   2.169   0.916  0.00  0.00    +0.054 A 
ATOM     17  C   UNL     1      -0.350   3.041   0.229  0.00  0.00    +0.055 A 
ATOM     18  C   UNL     1      -0.806   4.302  -0.175  0.00  0.00    +0.134 A 
ATOM     19  C   UNL     1      -2.103   4.679   0.106  0.00  0.00    +0.039 A 
ATOM     20  C   UNL     1      -2.952   3.817   0.785  0.00  0.00    +0.005 A 
ATOM     21  F   UNL     1       0.018   5.143  -0.837  0.00  0.00    -0.205 F 
ATOM     22  C   UNL     1      -2.516   2.573   1.188  0.00  0.00    +0.026 A 
ATOM     23  C   UNL     1       1.023   2.608  -0.054  0.00  0.00    +0.053 A 
BRANCH  23  24
ATOM     24  N   UNL     1       1.899   3.428  -0.724  0.00  0.00    -0.357 N 
ATOM     25  H   UNL     1       1.566   4.196  -1.214  0.00  0.00    +0.142 HD
ATOM     26  H   UNL     1       2.850   3.240  -0.706  0.00  0.00    +0.142 HD
ENDBRANCH  23  24
ENDBRANCH   6  11
BRANCH   1  31
ATOM     27  C   UNL     1      11.191  -4.396  -0.030  0.00  0.00    +0.105 C 
ATOM     28  N   UNL     1       9.968  -3.688  -0.430  0.00  0.00    -0.302 NA
ATOM     29  C   UNL     1       9.039  -3.779   0.703  0.00  0.00    +0.103 C 
ATOM     30  C   UNL     1       7.784  -2.957   0.406  0.00  0.00    +0.120 C 
ATOM     31  N   UNL     1       8.143  -1.541   0.262  0.00  0.00    -0.327 N 
ATOM     32  C   UNL     1       9.072  -1.450  -0.871  0.00  0.00    +0.120 C 
ATOM     33  C   UNL     1      10.327  -2.272  -0.574  0.00  0.00    +0.103 C 
ENDBRANCH   1  31
TORSDOF 3
