REMARK  Name = m13
REMARK  4 active torsions:
REMARK  status: ('A' for Active; 'I' for Inactive)
REMARK    1  A    between atoms: C_1  and  N_2
REMARK    2  A    between atoms: N_5  and  C_6
REMARK    3  A    between atoms: C_11  and  C_12
REMARK    4  A    between atoms: C_13  and  N_14
REMARK                            x       y       z     vdW  Elec       q    Type
REMARK                         _______ _______ _______ _____ _____    ______ ____
ROOT
ATOM      1  C   UNL     1       6.174  -1.005  -0.123  0.00  0.00    +0.032 A 
ATOM      2  C   UNL     1       5.105  -0.914   0.754  0.00  0.00    +0.051 A 
ATOM      3  C   UNL     1       3.963  -0.224   0.374  0.00  0.00    +0.068 A 
ATOM      4  C   UNL     1       3.892   0.367  -0.899  0.00  0.00    +0.090 A 
ATOM      5  N   UNL     1       2.675   0.961  -0.998  0.00  0.00    -0.227 NA
ATOM      6  C   UNL     1       2.002   0.777   0.114  0.00  0.00    +0.146 A 
ATOM      7  C   UNL     1       4.979   0.259  -1.772  0.00  0.00    +0.032 A 
ATOM      8  N   UNL     1       2.757   0.047   0.996  0.00  0.00    -0.338 N 
ATOM      9  H   UNL     1       2.495  -0.227   1.889  0.00  0.00    +0.167 HD
ATOM     10  C   UNL     1       6.100  -0.418  -1.385  0.00  0.00    +0.025 A 
ENDROOT
BRANCH   6  11
ATOM     11  C   UNL     1       0.641   1.277   0.374  0.00  0.00    +0.103 A 
ATOM     12  C   UNL     1      -0.296   0.466   1.056  0.00  0.00    +0.262 A 
ATOM     13  O   UNL     1       0.039  -0.646   1.428  0.00  0.00    -0.267 OA
ATOM     14  N   UNL     1      -1.543   0.894   1.313  0.00  0.00    -0.321 N 
ATOM     15  H   UNL     1      -2.156   0.311   1.786  0.00  0.00    +0.169 HD
ATOM     16  C   UNL     1      -1.975   2.144   0.914  0.00  0.00    +0.054 A 
ATOM     17  C   UNL     1      -1.100   3.004   0.226  0.00  0.00    +0.055 A 
ATOM     18  C   UNL     1      -1.539   4.270  -0.178  0.00  0.00    +0.134 A 
ATOM     19  C   UNL     1      -2.830   4.666   0.104  0.00  0.00    +0.039 A 
ATOM     20  C   UNL     1      -3.690   3.816   0.783  0.00  0.00    +0.005 A 
ATOM     21  F   UNL     1      -0.703   5.100  -0.839  0.00  0.00    -0.205 F 
ATOM     22  C   UNL     1      -3.272   2.566   1.187  0.00  0.00    +0.026 A 
ATOM     23  C   UNL     1       0.267   2.551  -0.057  0.00  0.00    +0.053 A 
BRANCH  23  24
ATOM     24  N   UNL     1       1.154   3.360  -0.727  0.00  0.00    -0.357 N 
ATOM     25  H   UNL     1       0.831   4.132  -1.218  0.00  0.00    +0.142 HD
ATOM     26  H   UNL     1       2.103   3.158  -0.709  0.00  0.00    +0.142 HD
ENDBRANCH  23  24
ENDBRANCH   6  11
BRANCH   1  31
ATOM     27  C   UNL     1      10.338  -4.591  -0.035  0.00  0.00    +0.105 C 
ATOM     28  N   UNL     1       9.124  -3.867  -0.435  0.00  0.00    -0.302 NA
ATOM     29  C   UNL     1       8.194  -3.944   0.699  0.00  0.00    +0.103 C 
ATOM     30  C   UNL     1       6.951  -3.106   0.402  0.00  0.00    +0.120 C 
ATOM     31  N   UNL     1       7.330  -1.695   0.257  0.00  0.00    -0.327 N 
ATOM     32  C   UNL     1       8.259  -1.617  -0.876  0.00  0.00    +0.120 C 
ATOM     33  C   UNL     1       9.503  -2.456  -0.579  0.00  0.00    +0.103 C 
ENDBRANCH   1  31
TORSDOF 3
