REMARK  Name = m14
REMARK  10 active torsions:
REMARK  status: ('A' for Active; 'I' for Inactive)
REMARK    1  A    between atoms: C_1  and  C_2
REMARK    2  A    between atoms: C_2  and  C_3
REMARK    3  A    between atoms: C_2  and  O_4
REMARK    4  A    between atoms: O_4  and  C_5
REMARK    5  A    between atoms: C_8  and  C_9
REMARK    6  A    between atoms: N_11  and  C_12
REMARK    7  A    between atoms: C_12  and  C_14
REMARK    8  A    between atoms: C_12  and  C_15
REMARK    9  A    between atoms: C_26  and  C_27
REMARK   10  A    between atoms: C_38  and  N_39
REMARK                            x       y       z     vdW  Elec       q    Type
REMARK                         _______ _______ _______ _____ _____    ______ ____
ROOT
ATOM      1  C   UNL     1      -4.897  -1.902   0.422  0.00  0.00    +0.105 A 
ATOM      2  C   UNL     1      -6.215  -2.516   0.582  0.00  0.00    +0.086 A 
ATOM      3  C   UNL     1      -7.043  -1.537   1.161  0.00  0.00    +0.164 A 
ATOM      4  N   UNL     1      -8.314  -1.847   1.418  0.00  0.00    -0.216 NA
ATOM      5  C   UNL     1      -8.782  -3.044   1.142  0.00  0.00    +0.225 A 
ATOM      6  N   UNL     1      -8.039  -3.994   0.604  0.00  0.00    -0.220 NA
ATOM      7  N   UNL     1      -6.281  -0.420   1.325  0.00  0.00    -0.235 N 
ATOM      8  C   UNL     1      -6.759  -3.782   0.311  0.00  0.00    +0.131 A 
ATOM      9  N   UNL     1      -4.983  -0.671   0.868  0.00  0.00    -0.168 NA
ENDROOT
BRANCH   1  14
ATOM     10  C   UNL     1      -1.430  -3.756  -1.203  0.00  0.00    +0.156 A 
ATOM     11  C   UNL     1      -2.656  -3.898  -1.842  0.00  0.00    +0.165 A 
ATOM     12  F   UNL     1      -2.746  -4.629  -2.974  0.00  0.00    -0.202 F 
ATOM     13  C   UNL     1      -3.784  -3.303  -1.313  0.00  0.00    +0.052 A 
ATOM     14  C   UNL     1      -3.689  -2.548  -0.145  0.00  0.00    +0.006 A 
ATOM     15  C   UNL     1      -2.456  -2.403   0.490  0.00  0.00    +0.014 A 
ATOM     16  C   UNL     1      -1.334  -3.005  -0.040  0.00  0.00    +0.049 A 
BRANCH  10  17
ATOM     17  O   UNL     1      -0.322  -4.348  -1.721  0.00  0.00    -0.486 OA
BRANCH  17  19
ATOM     18  C   UNL     1       1.812  -5.210  -0.984  0.00  0.00    +0.051 C 
ATOM     19  C   UNL     1       0.734  -4.143  -0.781  0.00  0.00    +0.167 C 
ATOM     20  C   UNL     1       1.344  -2.756  -0.992  0.00  0.00    +0.051 C 
ENDBRANCH  17  19
ENDBRANCH  10  17
ENDBRANCH   1  14
BRANCH   8  21
ATOM     21  N   UNL     1      -5.987  -4.780  -0.251  0.00  0.00    -0.342 N 
ATOM     22  H   UNL     1      -5.020  -4.701  -0.255  0.00  0.00    +0.144 HD
ATOM     23  H   UNL     1      -6.411  -5.560  -0.642  0.00  0.00    +0.144 HD
ENDBRANCH   8  21
BRANCH   7  24
ATOM     24  C   UNL     1      -6.748   0.848   1.893  0.00  0.00    +0.173 C 
ATOM     25  C   UNL     1      -5.927   1.181   3.141  0.00  0.00    +0.041 C 
BRANCH  24  26
ATOM     26  C   UNL     1      -6.581   1.946   0.875  0.00  0.00    +0.141 A 
ATOM     27  C   UNL     1      -7.682   2.626   0.454  0.00  0.00    +0.070 A 
ATOM     28  C   UNL     1      -7.503   3.692  -0.548  0.00  0.00    +0.201 A 
ATOM     29  O   UNL     1      -8.390   4.488  -0.808  0.00  0.00    -0.286 OA
ATOM     30  C   UNL     1      -6.192   3.739  -1.225  0.00  0.00    +0.067 A 
ATOM     31  C   UNL     1      -5.147   2.964  -0.694  0.00  0.00    +0.139 A 
ATOM     32  C   UNL     1      -3.905   2.981  -1.318  0.00  0.00    +0.050 A 
ATOM     33  C   UNL     1      -3.709   3.754  -2.442  0.00  0.00    +0.042 A 
ATOM     34  C   UNL     1      -4.743   4.523  -2.964  0.00  0.00    +0.124 A 
ATOM     35  F   UNL     1      -4.531   5.277  -4.065  0.00  0.00    -0.205 F 
ATOM     36  C   UNL     1      -5.984   4.519  -2.361  0.00  0.00    +0.053 A 
ATOM     37  O   UNL     1      -5.358   2.217   0.409  0.00  0.00    -0.457 OA
BRANCH  27  38
ATOM     38  C   UNL     1      -9.025   2.310   0.997  0.00  0.00    -0.008 A 
ATOM     39  C   UNL     1      -9.610   1.072   0.739  0.00  0.00    +0.047 A 
ATOM     40  C   UNL     1     -10.860   0.781   1.252  0.00  0.00    +0.124 A 
ATOM     41  F   UNL     1     -11.427  -0.421   1.008  0.00  0.00    -0.205 F 
ATOM     42  C   UNL     1     -11.535   1.722   2.012  0.00  0.00    +0.038 A 
ATOM     43  C   UNL     1     -10.960   2.955   2.265  0.00  0.00    +0.003 A 
ATOM     44  C   UNL     1      -9.710   3.253   1.762  0.00  0.00    +0.009 A 
ENDBRANCH  27  38
ENDBRANCH  24  26
ENDBRANCH   7  24
TORSDOF 7
