REMARK  Name = m15
REMARK  4 active torsions:
REMARK  status: ('A' for Active; 'I' for Inactive)
REMARK    1  A    between atoms: C_2  and  C_14
REMARK    2  A    between atoms: N_3  and  C_4
REMARK    3  A    between atoms: C_4  and  C_5
REMARK    4  A    between atoms: C_19  and  C_20
REMARK                            x       y       z     vdW  Elec       q    Type
REMARK                         _______ _______ _______ _____ _____    ______ ____
ROOT
ATOM      1  C   UNL     1      -0.542   1.564  -0.078  0.00  0.00    +0.082 A 
ATOM      2  C   UNL     1      -1.984   1.774  -0.237  0.00  0.00    +0.105 A 
ATOM      3  N   UNL     1      -2.179   3.071  -0.295  0.00  0.00    -0.173 NA
ATOM      4  N   UNL     1      -0.946   3.723  -0.194  0.00  0.00    -0.283 N 
ATOM      5  H   UNL     1      -0.819   4.685  -0.215  0.00  0.00    +0.188 HD
ATOM      6  C   UNL     1       0.035   2.817  -0.064  0.00  0.00    +0.118 A 
ENDROOT
BRANCH   2   7
ATOM      7  C   UNL     1      -3.026   0.721  -0.307  0.00  0.00    +0.007 A 
ATOM      8  C   UNL     1      -4.242   0.896   0.345  0.00  0.00    +0.059 A 
ATOM      9  C   UNL     1      -5.227  -0.084   0.278  0.00  0.00    +0.163 A 
ATOM     10  O   UNL     1      -6.380   0.165   0.952  0.00  0.00    -0.485 OA
ATOM     11  C   UNL     1      -7.403  -0.687   0.446  0.00  0.00    +0.270 C 
ATOM     12  C   UNL     1      -6.874  -2.126   0.456  0.00  0.00    +0.270 C 
ATOM     13  O   UNL     1      -5.898  -2.248  -0.573  0.00  0.00    -0.485 OA
ATOM     14  C   UNL     1      -4.991  -1.245  -0.440  0.00  0.00    +0.162 A 
ATOM     15  C   UNL     1      -3.766  -1.421  -1.085  0.00  0.00    +0.050 A 
ATOM     16  C   UNL     1      -2.791  -0.452  -1.023  0.00  0.00    +0.014 A 
ENDBRANCH   2   7
BRANCH   1  18
ATOM     17  O   UNL     1      -0.480  -0.766   0.009  0.00  0.00    -0.270 OA
ATOM     18  C   UNL     1       0.155   0.271   0.037  0.00  0.00    +0.248 C 
ATOM     19  N   UNL     1       1.496   0.237   0.168  0.00  0.00    -0.307 N 
ATOM     20  H   UNL     1       2.002   1.065   0.191  0.00  0.00    +0.149 HD
BRANCH  19  21
ATOM     21  C   UNL     1       2.189  -1.049   0.277  0.00  0.00    +0.140 C 
BRANCH  21  22
ATOM     22  C   UNL     1       3.671  -0.811   0.413  0.00  0.00    -0.027 A 
ATOM     23  C   UNL     1       4.465  -0.746  -0.717  0.00  0.00    +0.054 A 
ATOM     24  C   UNL     1       5.827  -0.522  -0.594  0.00  0.00    +0.167 A 
ATOM     25  O   UNL     1       6.814  -0.412  -1.531  0.00  0.00    -0.453 OA
ATOM     26  C   UNL     1       8.048  -0.604  -0.814  0.00  0.00    +0.466 C 
ATOM     27  O   UNL     1       7.736  -0.171   0.524  0.00  0.00    -0.453 OA
ATOM     28  C   UNL     1       6.394  -0.374   0.669  0.00  0.00    +0.166 A 
ATOM     29  C   UNL     1       5.592  -0.445   1.797  0.00  0.00    +0.050 A 
ATOM     30  C   UNL     1       4.233  -0.663   1.667  0.00  0.00    +0.009 A 
ENDBRANCH  21  22
ENDBRANCH  19  21
ENDBRANCH   1  18
TORSDOF 4
