REMARK  Name = m16
REMARK  6 active torsions:
REMARK  status: ('A' for Active; 'I' for Inactive)
REMARK    1  A    between atoms: C_6  and  C_7
REMARK    2  A    between atoms: C_12  and  C_13
REMARK    3  A    between atoms: C_13  and  N_14
REMARK    4  A    between atoms: N_14  and  C_15
REMARK    5  A    between atoms: C_15  and  C_16
REMARK    6  A    between atoms: C_16  and  C_17
REMARK                            x       y       z     vdW  Elec       q    Type
REMARK                         _______ _______ _______ _____ _____    ______ ____
ROOT
ATOM      1  C   UNL     1       2.006   2.030   0.049  0.00  0.00    +0.097 A 
ATOM      2  C   UNL     1       0.792   2.688  -0.227  0.00  0.00    +0.011 A 
ATOM      3  C   UNL     1       0.929   3.980   0.141  0.00  0.00    +0.110 A 
ATOM      4  N   UNL     1       2.179   4.146   0.623  0.00  0.00    -0.284 N 
ATOM      5  H   UNL     1       2.555   4.976   0.957  0.00  0.00    +0.188 HD
ATOM      6  N   UNL     1       2.839   2.913   0.558  0.00  0.00    -0.174 NA
ENDROOT
BRANCH   1   8
ATOM      7  C   UNL     1       1.885  -0.008  -1.382  0.00  0.00    +0.014 A 
ATOM      8  C   UNL     1       2.297   0.595  -0.196  0.00  0.00    +0.006 A 
ATOM      9  C   UNL     1       2.984  -0.151   0.760  0.00  0.00    +0.059 A 
ATOM     10  C   UNL     1       3.254  -1.488   0.529  0.00  0.00    +0.167 A 
ATOM     11  O   UNL     1       3.897  -2.424   1.287  0.00  0.00    -0.453 OA
ATOM     12  C   UNL     1       4.231  -3.490   0.379  0.00  0.00    +0.466 C 
ATOM     13  O   UNL     1       3.223  -3.396  -0.645  0.00  0.00    -0.453 OA
ATOM     14  C   UNL     1       2.839  -2.086  -0.660  0.00  0.00    +0.166 A 
ATOM     15  C   UNL     1       2.156  -1.342  -1.610  0.00  0.00    +0.050 A 
ENDBRANCH   1   8
BRANCH   2  16
ATOM     16  C   UNL     1      -0.444   2.059  -0.818  0.00  0.00    +0.120 C 
BRANCH  16  17
ATOM     17  N   UNL     1      -1.131   1.268   0.211  0.00  0.00    -0.312 NA
ATOM     18  H   UNL     1      -0.490   0.543   0.496  0.00  0.00    +0.122 HD
BRANCH  17  19
ATOM     19  C   UNL     1      -2.257   0.599  -0.454  0.00  0.00    +0.084 C 
BRANCH  19  20
ATOM     20  C   UNL     1      -3.021  -0.248   0.566  0.00  0.00    +0.046 C 
BRANCH  20  21
ATOM     21  C   UNL     1      -4.194  -0.945  -0.126  0.00  0.00    +0.120 C 
ATOM     22  O   UNL     1      -5.165   0.029  -0.542  0.00  0.00    -0.377 OA
ATOM     23  C   UNL     1      -6.464  -0.589  -0.414  0.00  0.00    +0.160 C 
ATOM     24  C   UNL     1      -6.356  -1.387   0.910  0.00  0.00    +0.031 C 
ATOM     25  C   UNL     1      -4.895  -1.897   0.863  0.00  0.00    +0.034 C 
ENDBRANCH  20  21
ENDBRANCH  19  20
ENDBRANCH  17  19
ENDBRANCH  16  17
ENDBRANCH   2  16
TORSDOF 6
