REMARK  Name = m17
REMARK  7 active torsions:
REMARK  status: ('A' for Active; 'I' for Inactive)
REMARK    1  A    between atoms: C_6  and  C_7
REMARK    2  A    between atoms: C_12  and  C_13
REMARK    3  A    between atoms: C_13  and  N_14
REMARK    4  A    between atoms: N_14  and  C_15
REMARK    5  A    between atoms: C_15  and  C_16
REMARK    6  A    between atoms: C_16  and  C_17
REMARK    7  A    between atoms: C_17  and  N_18
REMARK                            x       y       z     vdW  Elec       q    Type
REMARK                         _______ _______ _______ _____ _____    ______ ____
ROOT
ATOM      1  C   UNL     1       3.010   1.821   0.161  0.00  0.00    +0.097 A 
ATOM      2  C   UNL     1       1.988   2.699  -0.254  0.00  0.00    +0.011 A 
ATOM      3  C   UNL     1       2.303   3.937   0.185  0.00  0.00    +0.110 A 
ATOM      4  N   UNL     1       3.478   3.859   0.845  0.00  0.00    -0.284 N 
ATOM      5  H   UNL     1       3.946   4.599   1.264  0.00  0.00    +0.188 HD
ATOM      6  N   UNL     1       3.906   2.526   0.819  0.00  0.00    -0.174 NA
ENDROOT
BRANCH   1   8
ATOM      7  C   UNL     1       2.731  -0.133  -1.361  0.00  0.00    +0.014 A 
ATOM      8  C   UNL     1       3.068   0.362  -0.104  0.00  0.00    +0.006 A 
ATOM      9  C   UNL     1       3.462  -0.515   0.905  0.00  0.00    +0.059 A 
ATOM     10  C   UNL     1       3.515  -1.874   0.656  0.00  0.00    +0.167 A 
ATOM     11  O   UNL     1       3.860  -2.926   1.455  0.00  0.00    -0.453 OA
ATOM     12  C   UNL     1       4.123  -4.020   0.557  0.00  0.00    +0.466 C 
ATOM     13  O   UNL     1       3.310  -3.723  -0.593  0.00  0.00    -0.453 OA
ATOM     14  C   UNL     1       3.176  -2.365  -0.604  0.00  0.00    +0.166 A 
ATOM     15  C   UNL     1       2.786  -1.490  -1.607  0.00  0.00    +0.050 A 
ENDBRANCH   1   8
BRANCH   2  16
ATOM     16  C   UNL     1       0.759   2.321  -1.040  0.00  0.00    +0.120 C 
BRANCH  16  17
ATOM     17  N   UNL     1      -0.203   1.654  -0.152  0.00  0.00    -0.312 NA
ATOM     18  H   UNL     1       0.248   0.818   0.188  0.00  0.00    +0.122 HD
BRANCH  17  19
ATOM     19  C   UNL     1      -1.323   1.217  -0.997  0.00  0.00    +0.082 C 
BRANCH  19  20
ATOM     20  C   UNL     1      -2.368   0.510  -0.131  0.00  0.00    +0.030 C 
BRANCH  20  21
ATOM     21  C   UNL     1      -3.535   0.054  -1.011  0.00  0.00    +0.086 C 
BRANCH  21  22
ATOM     22  N   UNL     1      -4.538  -0.624  -0.180  0.00  0.00    -0.298 NA
ATOM     23  C   UNL     1      -4.922   0.322   0.876  0.00  0.00    +0.112 C 
ATOM     24  C   UNL     1      -6.090  -0.253   1.678  0.00  0.00    +0.175 C 
ATOM     25  O   UNL     1      -7.226  -0.411   0.828  0.00  0.00    -0.377 OA
ATOM     26  C   UNL     1      -6.873  -1.363  -0.175  0.00  0.00    +0.175 C 
ATOM     27  C   UNL     1      -5.725  -0.817  -1.024  0.00  0.00    +0.112 C 
ENDBRANCH  21  22
ENDBRANCH  20  21
ENDBRANCH  19  20
ENDBRANCH  17  19
ENDBRANCH  16  17
ENDBRANCH   2  16
TORSDOF 7
