REMARK  Name = m18
REMARK  7 active torsions:
REMARK  status: ('A' for Active; 'I' for Inactive)
REMARK    1  A    between atoms: C_1  and  C_2
REMARK    2  A    between atoms: C_2  and  O_3
REMARK    3  A    between atoms: O_3  and  C_4
REMARK    4  A    between atoms: C_5  and  O_6
REMARK    5  A    between atoms: O_6  and  C_7
REMARK    6  A    between atoms: C_11  and  C_12
REMARK    7  A    between atoms: C_28  and  C_29
REMARK                            x       y       z     vdW  Elec       q    Type
REMARK                         _______ _______ _______ _____ _____    ______ ____
ROOT
ATOM      1  C   UNL     1       1.790   0.585  -1.077  0.00  0.00    +0.066 C 
ATOM      2  C   UNL     1       0.555   1.205  -0.475  0.00  0.00    +0.020 A 
ATOM      3  C   UNL     1       0.389   2.437   0.141  0.00  0.00    +0.141 A 
ATOM      4  N   UNL     1      -0.866   2.549   0.508  0.00  0.00    -0.171 NA
ATOM      5  N   UNL     1      -1.546   1.378   0.134  0.00  0.00    -0.198 N 
ATOM      6  C   UNL     1      -2.901   1.107   0.345  0.00  0.00    +0.176 A 
ATOM      7  N   UNL     1      -3.405  -0.032  -0.065  0.00  0.00    -0.144 NA
ATOM      8  N   UNL     1      -4.755  -0.325   0.141  0.00  0.00    -0.195 N 
ATOM      9  C   UNL     1      -5.569   0.586   0.769  0.00  0.00    +0.178 A 
ATOM     10  N   UNL     1      -6.777   0.049   0.820  0.00  0.00    -0.128 NA
ATOM     11  N   UNL     1      -6.748  -1.115   0.271  0.00  0.00    -0.132 NA
ATOM     12  C   UNL     1      -5.027   1.811   1.203  0.00  0.00    +0.054 A 
ATOM     13  C   UNL     1      -5.539  -1.384  -0.156  0.00  0.00    +0.152 A 
ATOM     14  C   UNL     1      -5.102  -2.646  -0.853  0.00  0.00    +0.090 C 
ATOM     15  C   UNL     1      -3.708   2.063   0.992  0.00  0.00    +0.054 A 
ATOM     16  C   UNL     1      -0.655   0.563  -0.468  0.00  0.00    +0.134 A 
ATOM     17  N   UNL     1      -0.814  -0.709  -1.017  0.00  0.00    -0.270 N 
ATOM     18  H   UNL     1      -1.613  -1.232  -0.843  0.00  0.00    +0.156 HD
ATOM     19  C   UNL     1       0.176  -1.192  -1.799  0.00  0.00    +0.219 C 
ATOM     20  O   UNL     1       0.109  -2.339  -2.186  0.00  0.00    -0.275 OA
ATOM     21  C   UNL     1       1.357  -0.357  -2.204  0.00  0.00    +0.109 C 
ENDROOT
BRANCH   1  23
ATOM     22  C   UNL     1       3.847   0.125   0.277  0.00  0.00    +0.166 A 
ATOM     23  C   UNL     1       2.533  -0.194  -0.021  0.00  0.00    +0.006 A 
ATOM     24  C   UNL     1       1.906  -1.234   0.640  0.00  0.00    +0.008 A 
ATOM     25  C   UNL     1       2.585  -1.950   1.608  0.00  0.00    +0.004 A 
ATOM     26  C   UNL     1       3.895  -1.633   1.915  0.00  0.00    +0.049 A 
ATOM     27  C   UNL     1       4.531  -0.596   1.252  0.00  0.00    +0.162 A 
BRANCH  27  28
ATOM     28  O   UNL     1       5.820  -0.283   1.553  0.00  0.00    -0.491 OA
ATOM     29  C   UNL     1       6.236  -1.190   2.576  0.00  0.00    +0.277 C 
ENDBRANCH  27  28
BRANCH  22  30
ATOM     30  O   UNL     1       4.467   1.144  -0.376  0.00  0.00    -0.488 OA
BRANCH  30  32
ATOM     31  C   UNL     1       5.810   1.676  -2.314  0.00  0.00    +0.048 C 
ATOM     32  C   UNL     1       5.091   0.576  -1.530  0.00  0.00    +0.226 C 
ENDBRANCH  30  32
ENDBRANCH  22  30
ENDBRANCH   1  23
TORSDOF 4
