REMARK  Name = m19
REMARK  9 active torsions:
REMARK  status: ('A' for Active; 'I' for Inactive)
REMARK    1  A    between atoms: C_1  and  C_2
REMARK    2  A    between atoms: C_2  and  S_3
REMARK    3  A    between atoms: S_3  and  C_4
REMARK    4  A    between atoms: C_7  and  C_8
REMARK    5  A    between atoms: N_10  and  C_11
REMARK    6  A    between atoms: N_15  and  S_16
REMARK    7  A    between atoms: S_16  and  C_19
REMARK    8  A    between atoms: N_31  and  C_32
REMARK    9  A    between atoms: C_32  and  C_33
REMARK                            x       y       z     vdW  Elec       q    Type
REMARK                         _______ _______ _______ _____ _____    ______ ____
ROOT
ATOM      1  C   UNL     1       1.464  -1.402  -0.827  0.00  0.00    +0.134 A 
ATOM      2  C   UNL     1       0.268  -1.844  -0.241  0.00  0.00    +0.020 A 
ATOM      3  C   UNL     1      -0.179  -1.686   1.193  0.00  0.00    +0.148 C 
ATOM      4  N   UNL     1      -1.604  -2.059   1.251  0.00  0.00    -0.172 NA
ATOM      5  C   UNL     1      -2.039  -3.267   0.534  0.00  0.00    +0.116 C 
ATOM      6  C   UNL     1      -1.830  -3.066  -0.971  0.00  0.00    +0.072 C 
ATOM      7  C   UNL     1      -0.467  -2.461  -1.198  0.00  0.00    +0.045 A 
ATOM      8  N   UNL     1       0.237  -2.428  -2.345  0.00  0.00    -0.270 N 
ATOM      9  C   UNL     1      -0.186  -2.993  -3.629  0.00  0.00    +0.172 C 
ATOM     10  N   UNL     1       1.444  -1.759  -2.098  0.00  0.00    -0.168 NA
ENDROOT
BRANCH   1  13
ATOM     11  C   UNL     1       4.417   0.378   0.298  0.00  0.00    +0.192 A 
ATOM     12  N   UNL     1       3.727  -0.235  -0.710  0.00  0.00    -0.301 N 
ATOM     13  C   UNL     1       2.553  -0.672  -0.142  0.00  0.00    +0.185 A 
ATOM     14  N   UNL     1       2.578  -0.314   1.120  0.00  0.00    -0.127 NA
ATOM     15  N   UNL     1       3.675   0.304   1.379  0.00  0.00    -0.122 NA
BRANCH  12  16
ATOM     16  C   UNL     1       4.153  -0.401  -2.101  0.00  0.00    +0.122 C 
ATOM     17  C   UNL     1       3.671   0.793  -2.928  0.00  0.00    +0.027 C 
ENDBRANCH  12  16
BRANCH  11  18
ATOM     18  S   UNL     1       6.004   1.134   0.168  0.00  0.00    -0.086 S 
BRANCH  18  20
ATOM     19  C   UNL     1       7.568   2.416   2.005  0.00  0.00    +0.016 C 
ATOM     20  C   UNL     1       6.219   1.706   1.872  0.00  0.00    +0.074 C 
ENDBRANCH  18  20
ENDBRANCH  11  18
ENDBRANCH   1  13
BRANCH   4  21
ATOM     21  S   UNL     1      -2.688  -1.140   2.101  0.00  0.00    +0.061 S 
ATOM     22  O   UNL     1      -1.919  -0.424   3.059  0.00  0.00    -0.153 OA
ATOM     23  O   UNL     1      -3.776  -2.004   2.400  0.00  0.00    -0.153 OA
BRANCH  21  24
ATOM     24  C   UNL     1      -3.329   0.074   0.998  0.00  0.00    +0.109 A 
ATOM     25  C   UNL     1      -2.707   1.299   0.880  0.00  0.00    +0.078 A 
ATOM     26  C   UNL     1      -3.201   2.266   0.006  0.00  0.00    +0.164 A 
ATOM     27  O   UNL     1      -2.532   3.447  -0.039  0.00  0.00    -0.485 OA
ATOM     28  C   UNL     1      -2.878   4.127  -1.242  0.00  0.00    +0.270 C 
ATOM     29  C   UNL     1      -4.407   4.175  -1.340  0.00  0.00    +0.270 C 
ATOM     30  O   UNL     1      -4.876   2.863  -1.633  0.00  0.00    -0.485 OA
ATOM     31  C   UNL     1      -4.330   1.992  -0.746  0.00  0.00    +0.162 A 
ATOM     32  C   UNL     1      -4.958   0.754  -0.614  0.00  0.00    +0.051 A 
ATOM     33  C   UNL     1      -4.461  -0.197   0.252  0.00  0.00    +0.032 A 
ENDBRANCH  21  24
ENDBRANCH   4  21
TORSDOF 6
