REMARK  Name = m20
REMARK  9 active torsions:
REMARK  status: ('A' for Active; 'I' for Inactive)
REMARK    1  A    between atoms: C_1  and  O_2
REMARK    2  A    between atoms: O_2  and  C_3
REMARK    3  A    between atoms: C_6  and  C_7
REMARK    4  A    between atoms: C_11  and  C_12
REMARK    5  A    between atoms: C_15  and  O_16
REMARK    6  A    between atoms: C_17  and  O_18
REMARK    7  A    between atoms: O_18  and  C_19
REMARK    8  A    between atoms: C_28  and  C_29
REMARK    9  A    between atoms: C_32  and  O_33
REMARK                            x       y       z     vdW  Elec       q    Type
REMARK                         _______ _______ _______ _____ _____    ______ ____
ROOT
ATOM      1  C   UNL     1      -2.076  -1.082  -0.789  0.00  0.00    +0.091 C 
ATOM      2  C   UNL     1      -2.592  -2.123   0.152  0.00  0.00    +0.049 A 
ATOM      3  C   UNL     1      -1.818  -2.701   1.125  0.00  0.00    +0.226 A 
ATOM      4  O   UNL     1      -2.603  -3.564   1.762  0.00  0.00    -0.339 OA
ATOM      5  N   UNL     1      -3.724  -3.569   1.291  0.00  0.00    -0.081 NA
ATOM      6  N   UNL     1      -0.494  -2.350   1.287  0.00  0.00    -0.286 N 
ATOM      7  H   UNL     1      -0.009  -2.599   2.089  0.00  0.00    +0.155 HD
ATOM      8  C   UNL     1       0.124  -1.639   0.285  0.00  0.00    +0.019 C 
ATOM      9  C   UNL     1       1.634  -1.566   0.333  0.00  0.00    +0.059 C 
ATOM     10  C   UNL     1       2.106  -0.244  -0.273  0.00  0.00    +0.032 C 
ATOM     11  C   UNL     1       1.598  -0.167  -1.717  0.00  0.00    +0.088 C 
ATOM     12  C   UNL     1       0.102  -0.313  -1.714  0.00  0.00    +0.162 C 
ATOM     13  O   UNL     1      -0.546   0.202  -2.603  0.00  0.00    -0.292 OA
ATOM     14  C   UNL     1      -3.839  -2.725   0.296  0.00  0.00    +0.087 A 
ATOM     15  C   UNL     1      -5.073  -2.458  -0.527  0.00  0.00    +0.069 C 
ATOM     16  C   UNL     1      -0.564  -1.031  -0.704  0.00  0.00    +0.024 C 
ENDROOT
BRANCH   1  20
ATOM     17  C   UNL     1      -3.693   2.729   0.282  0.00  0.00    +0.161 A 
ATOM     18  C   UNL     1      -3.946   2.195  -0.978  0.00  0.00    +0.159 A 
ATOM     19  C   UNL     1      -3.416   0.962  -1.323  0.00  0.00    +0.053 A 
ATOM     20  C   UNL     1      -2.646   0.261  -0.414  0.00  0.00    -0.032 A 
ATOM     21  C   UNL     1      -2.399   0.790   0.840  0.00  0.00    +0.008 A 
ATOM     22  C   UNL     1      -2.920   2.021   1.189  0.00  0.00    +0.050 A 
BRANCH  17  24
ATOM     23  C   UNL     1      -3.780   4.208   1.962  0.00  0.00    +0.277 C 
ATOM     24  O   UNL     1      -4.206   3.941   0.624  0.00  0.00    -0.491 OA
ENDBRANCH  17  24
BRANCH  18  25
ATOM     25  O   UNL     1      -4.704   2.886  -1.871  0.00  0.00    -0.503 OA
ATOM     26  H   UNL     1      -5.620   2.610  -1.733  0.00  0.00    +0.292 HD
ENDBRANCH  18  25
ENDBRANCH   1  20
BRANCH  10  27
ATOM     27  C   UNL     1       3.612  -0.189  -0.260  0.00  0.00    -0.040 A 
ATOM     28  C   UNL     1       4.260   0.821   0.426  0.00  0.00    +0.053 A 
ATOM     29  C   UNL     1       5.644   0.870   0.443  0.00  0.00    +0.162 A 
ATOM     30  C   UNL     1       6.380  -0.093  -0.241  0.00  0.00    +0.158 A 
ATOM     31  C   UNL     1       5.724  -1.099  -0.932  0.00  0.00    +0.049 A 
ATOM     32  C   UNL     1       4.343  -1.145  -0.941  0.00  0.00    +0.008 A 
BRANCH  29  33
ATOM     33  O   UNL     1       6.283   1.860   1.122  0.00  0.00    -0.491 OA
ATOM     34  C   UNL     1       5.269   2.678   1.710  0.00  0.00    +0.277 C 
ENDBRANCH  29  33
BRANCH  30  35
ATOM     35  O   UNL     1       7.739  -0.046  -0.233  0.00  0.00    -0.503 OA
ATOM     36  H   UNL     1       8.005   0.494  -0.990  0.00  0.00    +0.292 HD
ENDBRANCH  30  35
ENDBRANCH  10  27
TORSDOF 6
