REMARK  Name = m22
REMARK  9 active torsions:
REMARK  status: ('A' for Active; 'I' for Inactive)
REMARK    1  A    between atoms: C_1  and  O_2
REMARK    2  A    between atoms: O_2  and  C_3
REMARK    3  A    between atoms: C_3  and  C_5
REMARK    4  A    between atoms: C_7  and  C_8
REMARK    5  A    between atoms: N_16  and  C_17
REMARK    6  A    between atoms: C_17  and  C_18
REMARK    7  A    between atoms: N_28  and  C_29
REMARK    8  A    between atoms: C_34  and  O_35
REMARK    9  A    between atoms: O_35  and  C_36
REMARK                            x       y       z     vdW  Elec       q    Type
REMARK                         _______ _______ _______ _____ _____    ______ ____
ROOT
ATOM      1  C   UNL     1       1.869   2.289   0.049  0.00  0.00    +0.077 A 
ATOM      2  C   UNL     1       1.035   1.164   0.151  0.00  0.00    +0.096 A 
ATOM      3  C   UNL     1      -0.397   1.282   0.476  0.00  0.00    +0.267 A 
ATOM      4  N   UNL     1      -1.131   0.150   0.544  0.00  0.00    -0.251 N 
ATOM      5  C   UNL     1      -0.574  -1.051   0.322  0.00  0.00    +0.339 A 
ATOM      6  N   UNL     1       0.727  -1.210   0.027  0.00  0.00    -0.242 N 
ATOM      7  O   UNL     1      -1.278  -2.040   0.395  0.00  0.00    -0.246 OA
ATOM      8  O   UNL     1      -0.904   2.369   0.678  0.00  0.00    -0.267 OA
ATOM      9  C   UNL     1       1.570  -0.116  -0.073  0.00  0.00    +0.155 A 
ATOM     10  N   UNL     1       2.851  -0.258  -0.368  0.00  0.00    -0.233 NA
ATOM     11  C   UNL     1       3.661   0.777  -0.466  0.00  0.00    +0.048 A 
ATOM     12  C   UNL     1       3.213   2.073  -0.265  0.00  0.00    +0.039 A 
ENDROOT
BRANCH   6  13
ATOM     13  C   UNL     1       1.235  -2.499  -0.192  0.00  0.00    +0.094 A 
ATOM     14  C   UNL     1       1.747  -3.238   0.872  0.00  0.00    +0.144 A 
ATOM     15  C   UNL     1       2.243  -4.513   0.650  0.00  0.00    +0.048 A 
ATOM     16  C   UNL     1       2.239  -5.044  -0.626  0.00  0.00    +0.004 A 
ATOM     17  C   UNL     1       1.735  -4.309  -1.683  0.00  0.00    +0.002 A 
ATOM     18  C   UNL     1       1.234  -3.039  -1.470  0.00  0.00    +0.030 A 
BRANCH  14  19
ATOM     19  O   UNL     1       1.750  -2.714   2.127  0.00  0.00    -0.493 OA
ATOM     20  C   UNL     1       2.318  -3.704   2.986  0.00  0.00    +0.277 C 
ENDBRANCH  14  19
ENDBRANCH   6  13
BRANCH  11  21
ATOM     21  C   UNL     1       5.111   0.546  -0.804  0.00  0.00    +0.038 C 
ATOM     22  C   UNL     1       5.925   1.750  -1.283  0.00  0.00    +0.010 C 
ATOM     23  C   UNL     1       5.519   0.658  -2.275  0.00  0.00    +0.010 C 
ENDBRANCH  11  21
BRANCH   1  24
ATOM     24  C   UNL     1       1.344   3.656   0.273  0.00  0.00    +0.340 C 
ATOM     25  O   UNL     1       0.364   4.037  -0.334  0.00  0.00    -0.245 OA
BRANCH  24  27
ATOM     26  C   UNL     1       1.440   5.816   1.369  0.00  0.00    +0.280 C 
ATOM     27  O   UNL     1       1.954   4.476   1.150  0.00  0.00    -0.464 OA
ENDBRANCH  24  27
ENDBRANCH   1  24
BRANCH   4  28
ATOM     28  C   UNL     1      -2.558   0.234   0.866  0.00  0.00    +0.225 C 
BRANCH  28  29
ATOM     29  C   UNL     1      -3.352   0.378  -0.407  0.00  0.00    +0.236 C 
ATOM     30  N   UNL     1      -4.695   0.474  -0.356  0.00  0.00    -0.300 N 
ATOM     31  C   UNL     1      -5.400   0.435   0.932  0.00  0.00    +0.108 C 
ATOM     32  C   UNL     1      -6.474  -0.650   0.879  0.00  0.00    +0.019 C 
ATOM     33  C   UNL     1      -7.383  -0.406  -0.328  0.00  0.00    +0.003 C 
ATOM     34  C   UNL     1      -6.557  -0.478  -1.614  0.00  0.00    +0.019 C 
ATOM     35  C   UNL     1      -5.483   0.614  -1.589  0.00  0.00    +0.108 C 
ATOM     36  O   UNL     1      -2.782   0.406  -1.477  0.00  0.00    -0.274 OA
ENDBRANCH  28  29
ENDBRANCH   4  28
TORSDOF 7
