REMARK  Name = m24
REMARK  10 active torsions:
REMARK  status: ('A' for Active; 'I' for Inactive)
REMARK    1  A    between atoms: C_1  and  O_2
REMARK    2  A    between atoms: O_2  and  C_3
REMARK    3  A    between atoms: C_3  and  C_5
REMARK    4  A    between atoms: C_7  and  C_8
REMARK    5  A    between atoms: N_14  and  C_15
REMARK    6  A    between atoms: C_15  and  C_16
REMARK    7  A    between atoms: C_23  and  C_24
REMARK    8  A    between atoms: N_27  and  C_28
REMARK    9  A    between atoms: C_33  and  O_34
REMARK   10  A    between atoms: O_34  and  C_35
REMARK                            x       y       z     vdW  Elec       q    Type
REMARK                         _______ _______ _______ _____ _____    ______ ____
ROOT
ATOM      1  C   UNL     1       1.357   2.818  -0.295  0.00  0.00    +0.077 A 
ATOM      2  C   UNL     1       1.000   1.480  -0.064  0.00  0.00    +0.096 A 
ATOM      3  C   UNL     1      -0.342   1.102   0.410  0.00  0.00    +0.267 A 
ATOM      4  N   UNL     1      -0.606  -0.210   0.597  0.00  0.00    -0.251 N 
ATOM      5  C   UNL     1       0.327  -1.146   0.359  0.00  0.00    +0.339 A 
ATOM      6  N   UNL     1       1.566  -0.850  -0.068  0.00  0.00    -0.242 N 
ATOM      7  O   UNL     1       0.040  -2.313   0.543  0.00  0.00    -0.246 OA
ATOM      8  O   UNL     1      -1.189   1.946   0.626  0.00  0.00    -0.267 OA
ATOM      9  C   UNL     1       1.942   0.464  -0.298  0.00  0.00    +0.155 A 
ATOM     10  N   UNL     1       3.157   0.768  -0.724  0.00  0.00    -0.233 NA
ATOM     11  C   UNL     1       3.523   2.015  -0.945  0.00  0.00    +0.041 A 
ATOM     12  C   UNL     1       4.922   2.293  -1.429  0.00  0.00    +0.065 C 
ATOM     13  C   UNL     1       2.654   3.075  -0.744  0.00  0.00    +0.039 A 
ENDROOT
BRANCH   6  14
ATOM     14  C   UNL     1       2.486  -1.883  -0.294  0.00  0.00    +0.094 A 
ATOM     15  C   UNL     1       3.323  -2.312   0.734  0.00  0.00    +0.144 A 
ATOM     16  C   UNL     1       4.226  -3.337   0.506  0.00  0.00    +0.048 A 
ATOM     17  C   UNL     1       4.303  -3.926  -0.743  0.00  0.00    +0.004 A 
ATOM     18  C   UNL     1       3.477  -3.497  -1.766  0.00  0.00    +0.002 A 
ATOM     19  C   UNL     1       2.570  -2.479  -1.545  0.00  0.00    +0.030 A 
BRANCH  15  20
ATOM     20  O   UNL     1       3.245  -1.732   1.961  0.00  0.00    -0.493 OA
ATOM     21  C   UNL     1       4.207  -2.388   2.789  0.00  0.00    +0.277 C 
ENDBRANCH  15  20
ENDBRANCH   6  14
BRANCH   1  22
ATOM     22  C   UNL     1       0.393   3.920  -0.065  0.00  0.00    +0.340 C 
ATOM     23  O   UNL     1      -0.707   3.881  -0.576  0.00  0.00    -0.245 OA
BRANCH  22  25
ATOM     24  C   UNL     1      -0.207   6.044   0.938  0.00  0.00    +0.280 C 
ATOM     25  O   UNL     1       0.738   4.964   0.713  0.00  0.00    -0.464 OA
ENDBRANCH  22  25
ENDBRANCH   1  22
BRANCH   4  26
ATOM     26  C   UNL     1      -1.932  -0.619   1.067  0.00  0.00    +0.225 C 
BRANCH  26  27
ATOM     27  C   UNL     1      -2.832  -0.861  -0.117  0.00  0.00    +0.236 C 
ATOM     28  N   UNL     1      -4.109  -1.249   0.074  0.00  0.00    -0.297 N 
ATOM     29  C   UNL     1      -4.963  -1.603  -1.067  0.00  0.00    +0.073 C 
ATOM     30  C   UNL     1      -4.228  -1.299  -2.374  0.00  0.00    +0.028 C 
ATOM     31  C   UNL     1      -6.249  -0.780  -1.000  0.00  0.00    +0.022 C 
ATOM     32  C   UNL     1      -6.909  -0.981   0.365  0.00  0.00    +0.003 C 
ATOM     33  C   UNL     1      -5.965  -0.495   1.467  0.00  0.00    +0.019 C 
ATOM     34  C   UNL     1      -4.674  -1.319   1.428  0.00  0.00    +0.108 C 
ATOM     35  O   UNL     1      -2.407  -0.708  -1.243  0.00  0.00    -0.274 OA
ENDBRANCH  26  27
ENDBRANCH   4  26
TORSDOF 6
