REMARK  Name = m25
REMARK  5 active torsions:
REMARK  status: ('A' for Active; 'I' for Inactive)
REMARK    1  A    between atoms: C_1  and  C_2
REMARK    2  A    between atoms: C_5  and  C_6
REMARK    3  A    between atoms: C_8  and  C_9
REMARK    4  A    between atoms: C_15  and  C_16
REMARK    5  A    between atoms: C_26  and  C_27
REMARK                            x       y       z     vdW  Elec       q    Type
REMARK                         _______ _______ _______ _____ _____    ______ ____
ROOT
ATOM      1  C   UNL     1       2.955  -0.506  -0.267  0.00  0.00    +0.082 A 
ATOM      2  N   UNL     1       3.369  -1.753  -0.445  0.00  0.00    -0.209 NA
ATOM      3  C   UNL     1       2.538  -2.781  -0.387  0.00  0.00    +0.260 A 
ATOM      4  C   UNL     1       1.170  -2.572  -0.141  0.00  0.00    +0.076 A 
ATOM      5  C   UNL     1       0.537  -3.889  -0.145  0.00  0.00    +0.091 A 
ATOM      6  N   UNL     1       1.468  -4.765  -0.374  0.00  0.00    -0.080 NA
ATOM      7  C   UNL     1      -0.925  -4.177   0.074  0.00  0.00    +0.070 C 
ATOM      8  C   UNL     1       0.691  -1.257   0.048  0.00  0.00    +0.053 A 
ATOM      9  O   UNL     1       2.712  -4.112  -0.526  0.00  0.00    -0.334 OA
ATOM     10  C   UNL     1       1.608  -0.214  -0.018  0.00  0.00    +0.042 A 
ENDROOT
BRANCH   8  11
ATOM     11  C   UNL     1      -0.742  -0.998   0.309  0.00  0.00    +0.248 C 
ATOM     12  N   UNL     1      -1.105  -0.117   1.262  0.00  0.00    -0.287 N 
ATOM     13  C   UNL     1      -2.480   0.324   1.542  0.00  0.00    +0.145 C 
ATOM     14  C   UNL     1      -2.412   1.308   2.729  0.00  0.00    +0.032 C 
ATOM     15  C   UNL     1      -1.069   0.938   3.413  0.00  0.00    +0.021 C 
ATOM     16  C   UNL     1      -0.190   0.568   2.192  0.00  0.00    +0.109 C 
ATOM     17  O   UNL     1      -1.592  -1.579  -0.337  0.00  0.00    -0.270 OA
BRANCH  13  18
ATOM     18  C   UNL     1      -3.059   1.017   0.335  0.00  0.00    +0.158 A 
ATOM     19  N   UNL     1      -4.304   0.829  -0.180  0.00  0.00    -0.285 N 
ATOM     20  C   UNL     1      -4.392   1.666  -1.265  0.00  0.00    +0.161 A 
ATOM     21  C   UNL     1      -5.580   1.706  -2.021  0.00  0.00    +0.048 A 
ATOM     22  C   UNL     1      -6.625   0.915  -1.658  0.00  0.00    +0.005 A 
ATOM     23  C   UNL     1      -6.506   0.073  -0.538  0.00  0.00    +0.018 A 
ATOM     24  N   UNL     1      -3.232   2.295  -1.359  0.00  0.00    -0.129 NA
ATOM     25  C   UNL     1      -5.362   0.046   0.176  0.00  0.00    +0.094 A 
ATOM     26  N   UNL     1      -2.454   1.905  -0.411  0.00  0.00    -0.132 NA
ENDBRANCH  13  18
ENDBRANCH   8  11
BRANCH   1  30
ATOM     27  C   UNL     1       5.907   4.292  -0.356  0.00  0.00    +0.051 C 
ATOM     28  C   UNL     1       5.348   2.892  -0.381  0.00  0.00    -0.013 A 
ATOM     29  S   UNL     1       3.664   2.351  -0.139  0.00  0.00    -0.092 S 
ATOM     30  C   UNL     1       3.932   0.597  -0.338  0.00  0.00    +0.038 A 
ATOM     31  C   UNL     1       5.282   0.542  -0.568  0.00  0.00    +0.018 A 
ATOM     32  C   UNL     1       5.998   1.716  -0.588  0.00  0.00    +0.011 A 
ENDBRANCH   1  30
TORSDOF 3
