REMARK  Name = m26
REMARK  8 active torsions:
REMARK  status: ('A' for Active; 'I' for Inactive)
REMARK    1  A    between atoms: C_1  and  C_2
REMARK    2  A    between atoms: C_2  and  O_3
REMARK    3  A    between atoms: O_3  and  C_4
REMARK    4  A    between atoms: C_12  and  C_13
REMARK    5  A    between atoms: C_20  and  C_21
REMARK    6  A    between atoms: N_23  and  C_24
REMARK    7  A    between atoms: C_24  and  C_25
REMARK    8  A    between atoms: C_27  and  C_28
REMARK                            x       y       z     vdW  Elec       q    Type
REMARK                         _______ _______ _______ _____ _____    ______ ____
ROOT
ATOM      1  C   UNL     1       5.939   0.239  -0.326  0.00  0.00    +0.122 A 
ATOM      2  C   UNL     1       5.156  -0.747  -0.909  0.00  0.00    +0.063 A 
ATOM      3  C   UNL     1       3.817  -0.807  -0.611  0.00  0.00    +0.044 A 
ATOM      4  C   UNL     1       3.189   0.107   0.266  0.00  0.00    +0.081 A 
ATOM      5  N   UNL     1       1.864  -0.080   0.454  0.00  0.00    -0.221 NA
ATOM      6  C   UNL     1       1.197  -1.044  -0.134  0.00  0.00    +0.196 A 
ATOM      7  N   UNL     1      -0.155  -1.355  -0.036  0.00  0.00    -0.193 N 
ATOM      8  C   UNL     1      -1.071  -0.703   0.714  0.00  0.00    +0.135 A 
ATOM      9  N   UNL     1      -0.931   0.392   1.564  0.00  0.00    -0.270 N 
ATOM     10  H   UNL     1      -0.107   0.903   1.588  0.00  0.00    +0.156 HD
ATOM     11  C   UNL     1      -1.975   0.722   2.353  0.00  0.00    +0.219 C 
ATOM     12  C   UNL     1      -3.173  -0.172   2.507  0.00  0.00    +0.109 C 
ATOM     13  C   UNL     1      -3.544  -0.840   1.182  0.00  0.00    +0.066 C 
ATOM     14  O   UNL     1      -1.946   1.773   2.957  0.00  0.00    -0.275 OA
ATOM     15  C   UNL     1      -2.279  -1.318   0.517  0.00  0.00    +0.023 A 
ATOM     16  C   UNL     1      -2.083  -2.377  -0.358  0.00  0.00    +0.066 A 
ATOM     17  C   UNL     1      -3.145  -3.331  -0.841  0.00  0.00    +0.068 C 
ATOM     18  N   UNL     1      -0.814  -2.406  -0.693  0.00  0.00    -0.168 NA
ATOM     19  C   UNL     1       4.020   1.100   0.835  0.00  0.00    +0.032 A 
ATOM     20  S   UNL     1       2.467  -1.857  -1.093  0.00  0.00    -0.048 S 
ATOM     21  C   UNL     1       5.346   1.153   0.541  0.00  0.00    +0.048 A 
ENDROOT
BRANCH  13  22
ATOM     22  C   UNL     1      -4.234   0.157   0.287  0.00  0.00    +0.001 A 
ATOM     23  C   UNL     1      -5.528   0.040  -0.231  0.00  0.00    +0.064 A 
ATOM     24  C   UNL     1      -6.478  -1.104   0.013  0.00  0.00    +0.068 C 
ATOM     25  N   UNL     1      -5.774   1.100  -0.958  0.00  0.00    -0.176 NA
ATOM     26  N   UNL     1      -4.640   1.921  -0.932  0.00  0.00    -0.271 N 
ATOM     27  C   UNL     1      -3.709   1.320  -0.162  0.00  0.00    +0.112 A 
BRANCH  26  28
ATOM     28  C   UNL     1      -4.490   3.205  -1.621  0.00  0.00    +0.140 C 
ATOM     29  C   UNL     1      -4.780   3.022  -3.112  0.00  0.00    +0.029 C 
ENDBRANCH  26  28
ENDBRANCH  13  22
BRANCH   1  30
ATOM     30  O   UNL     1       7.268   0.315  -0.602  0.00  0.00    -0.492 OA
BRANCH  30  32
ATOM     31  C   UNL     1       9.281   1.565  -0.129  0.00  0.00    +0.048 C 
ATOM     32  C   UNL     1       7.781   1.424   0.139  0.00  0.00    +0.225 C 
ENDBRANCH  30  32
ENDBRANCH   1  30
TORSDOF 4
