REMARK  Name = m27
REMARK  7 active torsions:
REMARK  status: ('A' for Active; 'I' for Inactive)
REMARK    1  A    between atoms: C_1  and  O_2
REMARK    2  A    between atoms: O_2  and  C_3
REMARK    3  A    between atoms: C_3  and  C_5
REMARK    4  A    between atoms: C_7  and  C_8
REMARK    5  A    between atoms: N_16  and  C_17
REMARK    6  A    between atoms: C_17  and  C_18
REMARK    7  A    between atoms: N_29  and  C_30
REMARK                            x       y       z     vdW  Elec       q    Type
REMARK                         _______ _______ _______ _____ _____    ______ ____
ROOT
ATOM      1  C   UNL     1       1.944   2.016   0.055  0.00  0.00    +0.077 A 
ATOM      2  C   UNL     1       1.188   0.902   0.451  0.00  0.00    +0.096 A 
ATOM      3  C   UNL     1      -0.133   1.043   1.087  0.00  0.00    +0.267 A 
ATOM      4  N   UNL     1      -0.801  -0.081   1.428  0.00  0.00    -0.254 N 
ATOM      5  C   UNL     1      -0.278  -1.295   1.195  0.00  0.00    +0.338 A 
ATOM      6  N   UNL     1       0.924  -1.475   0.623  0.00  0.00    -0.246 N 
ATOM      7  O   UNL     1      -0.918  -2.276   1.520  0.00  0.00    -0.246 OA
ATOM      8  O   UNL     1      -0.610   2.141   1.300  0.00  0.00    -0.267 OA
ATOM      9  C   UNL     1       1.691  -0.391   0.228  0.00  0.00    +0.155 A 
ATOM     10  N   UNL     1       2.874  -0.554  -0.341  0.00  0.00    -0.233 NA
ATOM     11  C   UNL     1       3.610   0.471  -0.720  0.00  0.00    +0.048 A 
ATOM     12  C   UNL     1       3.185   1.778  -0.541  0.00  0.00    +0.039 A 
ENDROOT
BRANCH   6  13
ATOM     13  C   UNL     1       1.403  -2.775   0.411  0.00  0.00    +0.053 A 
ATOM     14  C   UNL     1       2.744  -3.066   0.626  0.00  0.00    +0.026 A 
ATOM     15  C   UNL     1       3.211  -4.349   0.422  0.00  0.00    +0.002 A 
ATOM     16  C   UNL     1       2.348  -5.341  -0.006  0.00  0.00    +0.000 A 
ATOM     17  C   UNL     1       1.014  -5.053  -0.226  0.00  0.00    +0.002 A 
ATOM     18  C   UNL     1       0.539  -3.773  -0.018  0.00  0.00    +0.026 A 
ENDBRANCH   6  13
BRANCH  11  19
ATOM     19  C   UNL     1       4.949   0.217  -1.363  0.00  0.00    +0.038 C 
ATOM     20  C   UNL     1       5.598   1.373  -2.126  0.00  0.00    +0.010 C 
ATOM     21  C   UNL     1       5.005   0.188  -2.891  0.00  0.00    +0.010 C 
ENDBRANCH  11  19
BRANCH   1  22
ATOM     22  C   UNL     1       1.448   3.396   0.266  0.00  0.00    +0.340 C 
ATOM     23  O   UNL     1       0.344   3.711  -0.129  0.00  0.00    -0.245 OA
BRANCH  22  25
ATOM     24  C   UNL     1       1.733   5.652   1.105  0.00  0.00    +0.280 C 
ATOM     25  O   UNL     1       2.220   4.300   0.897  0.00  0.00    -0.464 OA
ENDBRANCH  22  25
ENDBRANCH   1  22
BRANCH   4  26
ATOM     26  C   UNL     1      -2.117   0.026   2.062  0.00  0.00    +0.186 C 
BRANCH  26  27
ATOM     27  C   UNL     1      -3.187   0.042   1.001  0.00  0.00    +0.080 A 
ATOM     28  N   UNL     1      -3.612   1.122   0.341  0.00  0.00    -0.231 NA
ATOM     29  C   UNL     1      -4.556   0.762  -0.519  0.00  0.00    +0.138 A 
ATOM     30  N   UNL     1      -4.747  -0.590  -0.398  0.00  0.00    -0.306 N 
ATOM     31  C   UNL     1      -5.674  -1.228  -1.169  0.00  0.00    +0.092 A 
ATOM     32  C   UNL     1      -6.417  -0.540  -2.061  0.00  0.00    +0.018 A 
ATOM     33  C   UNL     1      -6.245   0.846  -2.208  0.00  0.00    +0.005 A 
ATOM     34  C   UNL     1      -5.323   1.495  -1.446  0.00  0.00    +0.047 A 
ATOM     35  C   UNL     1      -3.878  -1.032   0.563  0.00  0.00    +0.117 A 
ENDBRANCH  26  27
ENDBRANCH   4  26
TORSDOF 6
