REMARK  Name = m28
REMARK  7 active torsions:
REMARK  status: ('A' for Active; 'I' for Inactive)
REMARK    1  A    between atoms: C_1  and  C_2
REMARK    2  A    between atoms: C_2  and  C_3
REMARK    3  A    between atoms: C_3  and  C_4
REMARK    4  A    between atoms: C_4  and  N_5
REMARK    5  A    between atoms: C_13  and  N_14
REMARK    6  A    between atoms: C_15  and  C_17
REMARK    7  A    between atoms: C_19  and  C_20
REMARK                            x       y       z     vdW  Elec       q    Type
REMARK                         _______ _______ _______ _____ _____    ______ ____
ROOT
ATOM      1  N   UNL     1      -1.424  -1.872   0.483  0.00  0.00    -0.280 N 
ATOM      2  H   UNL     1      -1.075  -2.524   1.111  0.00  0.00    +0.155 HD
ATOM      3  C   UNL     1      -0.585  -1.027  -0.147  0.00  0.00    +0.270 C 
ATOM      4  O   UNL     1      -1.008  -0.280  -1.008  0.00  0.00    -0.268 OA
ENDROOT
BRANCH   1  10
ATOM      5  N   UNL     1      -5.416   0.712  -0.403  0.00  0.00    -0.265 N 
ATOM      6  C   UNL     1      -4.777  -0.527  -0.224  0.00  0.00    +0.080 A 
ATOM      7  C   UNL     1      -5.532  -1.694  -0.272  0.00  0.00    +0.143 A 
ATOM      8  C   UNL     1      -4.911  -2.918  -0.064  0.00  0.00    +0.049 A 
ATOM      9  C   UNL     1      -3.554  -2.975   0.187  0.00  0.00    +0.027 A 
ATOM     10  C   UNL     1      -2.800  -1.809   0.232  0.00  0.00    +0.036 A 
ATOM     11  O   UNL     1      -6.863  -1.652  -0.527  0.00  0.00    -0.481 OA
ATOM     12  C   UNL     1      -7.443  -0.555   0.167  0.00  0.00    +0.325 C 
ATOM     13  C   UNL     1      -3.415  -0.580   0.028  0.00  0.00    +0.050 A 
ATOM     14  C   UNL     1      -6.760   0.733  -0.217  0.00  0.00    +0.258 C 
ATOM     15  O   UNL     1      -7.394   1.758  -0.357  0.00  0.00    -0.272 OA
BRANCH   5  16
ATOM     16  C   UNL     1      -4.671   1.917  -0.777  0.00  0.00    +0.114 C 
BRANCH  16  17
ATOM     17  C   UNL     1      -4.214   2.647   0.488  0.00  0.00    +0.019 C 
BRANCH  17  19
ATOM     18  C   UNL     1      -2.978   4.635   1.362  0.00  0.00    +0.004 C 
ATOM     19  C   UNL     1      -3.436   3.905   0.097  0.00  0.00    -0.002 C 
ENDBRANCH  17  19
ENDBRANCH  16  17
ENDBRANCH   5  16
ENDBRANCH   1  10
BRANCH   3  20
ATOM     20  C   UNL     1       0.855  -1.009   0.209  0.00  0.00    +0.168 A 
ATOM     21  N   UNL     1       1.450  -1.747   1.114  0.00  0.00    -0.073 NA
ATOM     22  O   UNL     1       2.634  -1.512   1.177  0.00  0.00    -0.354 OA
ATOM     23  C   UNL     1       2.998  -0.552   0.307  0.00  0.00    +0.168 A 
ATOM     24  C   UNL     1       1.861  -0.184  -0.358  0.00  0.00    +0.086 A 
BRANCH  23  25
ATOM     25  C   UNL     1       4.356  -0.004   0.111  0.00  0.00    +0.024 A 
ATOM     26  C   UNL     1       5.463  -0.848   0.138  0.00  0.00    +0.061 A 
ATOM     27  C   UNL     1       6.744  -0.340  -0.053  0.00  0.00    +0.163 A 
ATOM     28  O   UNL     1       7.767  -1.233  -0.001  0.00  0.00    -0.485 OA
ATOM     29  C   UNL     1       8.910  -0.659  -0.626  0.00  0.00    +0.270 C 
ATOM     30  C   UNL     1       9.147   0.725  -0.010  0.00  0.00    +0.270 C 
ATOM     31  O   UNL     1       8.126   1.600  -0.478  0.00  0.00    -0.485 OA
ATOM     32  C   UNL     1       6.917   1.019  -0.267  0.00  0.00    +0.162 A 
ATOM     33  C   UNL     1       5.806   1.863  -0.284  0.00  0.00    +0.050 A 
ATOM     34  C   UNL     1       4.538   1.364  -0.099  0.00  0.00    +0.015 A 
ENDBRANCH  23  25
ENDBRANCH   3  20
TORSDOF 6
