REMARK  Name = m29
REMARK  4 active torsions:
REMARK  status: ('A' for Active; 'I' for Inactive)
REMARK    1  A    between atoms: C_2  and  C_3
REMARK    2  A    between atoms: C_3  and  N_4
REMARK    3  A    between atoms: C_11  and  C_12
REMARK    4  A    between atoms: N_23  and  C_24
REMARK                            x       y       z     vdW  Elec       q    Type
REMARK                         _______ _______ _______ _____ _____    ______ ____
ROOT
ATOM      1  N   UNL     1       0.462  -1.624  -0.738  0.00  0.00    -0.305 N 
ATOM      2  C   UNL     1       1.539  -0.832  -0.413  0.00  0.00    +0.238 A 
ATOM      3  N   UNL     1       2.540  -1.332   0.363  0.00  0.00    -0.160 N 
ATOM      4  N   UNL     1       3.475  -0.300   0.523  0.00  0.00    -0.140 NA
ATOM      5  C   UNL     1       3.010   0.741  -0.135  0.00  0.00    +0.184 A 
ATOM      6  C   UNL     1       2.488  -2.600   0.805  0.00  0.00    +0.279 A 
ATOM      7  O   UNL     1       3.388  -3.042   1.496  0.00  0.00    -0.265 OA
ATOM      8  C   UNL     1       1.387  -3.419   0.466  0.00  0.00    +0.038 A 
ATOM      9  C   UNL     1       1.093  -4.859   0.828  0.00  0.00    +0.043 C 
ATOM     10  C   UNL     1       0.005  -5.309  -0.171  0.00  0.00    +0.011 C 
ATOM     11  C   UNL     1      -0.671  -3.968  -0.532  0.00  0.00    +0.054 C 
ATOM     12  N   UNL     1       1.838   0.417  -0.696  0.00  0.00    -0.190 NA
ATOM     13  C   UNL     1       0.394  -2.916  -0.300  0.00  0.00    +0.031 A 
ENDROOT
BRANCH   5  14
ATOM     14  C   UNL     1       3.678   2.062  -0.237  0.00  0.00    +0.021 A 
ATOM     15  C   UNL     1       3.087   3.089  -0.971  0.00  0.00    +0.011 A 
ATOM     16  C   UNL     1       3.710   4.317  -1.058  0.00  0.00    +0.001 A 
ATOM     17  C   UNL     1       4.924   4.527  -0.429  0.00  0.00    +0.000 A 
ATOM     18  C   UNL     1       5.518   3.509   0.295  0.00  0.00    +0.001 A 
ATOM     19  C   UNL     1       4.901   2.278   0.394  0.00  0.00    +0.011 A 
ENDBRANCH   5  14
BRANCH   1  20
ATOM     20  C   UNL     1      -0.616  -1.079  -1.567  0.00  0.00    +0.221 C 
BRANCH  20  22
ATOM     21  O   UNL     1      -1.527  -0.471   0.524  0.00  0.00    -0.274 OA
ATOM     22  C   UNL     1      -1.666  -0.459  -0.680  0.00  0.00    +0.237 C 
ATOM     23  N   UNL     1      -2.762   0.104  -1.226  0.00  0.00    -0.282 N 
ATOM     24  H   UNL     1      -2.918   0.035  -2.181  0.00  0.00    +0.155 HD
BRANCH  23  25
ATOM     25  C   UNL     1      -3.676   0.788  -0.415  0.00  0.00    +0.072 A 
ATOM     26  C   UNL     1      -5.010   0.880  -0.794  0.00  0.00    +0.145 A 
ATOM     27  F   UNL     1      -5.428   0.306  -1.944  0.00  0.00    -0.204 F 
ATOM     28  C   UNL     1      -5.912   1.553   0.011  0.00  0.00    +0.043 A 
ATOM     29  C   UNL     1      -5.485   2.141   1.187  0.00  0.00    +0.041 A 
ATOM     30  C   UNL     1      -4.155   2.054   1.565  0.00  0.00    +0.125 A 
ATOM     31  F   UNL     1      -3.742   2.631   2.715  0.00  0.00    -0.205 F 
ATOM     32  C   UNL     1      -3.250   1.379   0.766  0.00  0.00    +0.064 A 
ENDBRANCH  23  25
ENDBRANCH  20  22
ENDBRANCH   1  20
TORSDOF 4
