REMARK  Name = m30
REMARK  7 active torsions:
REMARK  status: ('A' for Active; 'I' for Inactive)
REMARK    1  A    between atoms: C_1  and  C_2
REMARK    2  A    between atoms: C_2  and  N_3
REMARK    3  A    between atoms: C_5  and  C_6
REMARK    4  A    between atoms: C_13  and  C_14
REMARK    5  A    between atoms: C_22  and  O_23
REMARK    6  A    between atoms: O_23  and  C_24
REMARK    7  A    between atoms: C_28  and  C_29
REMARK                            x       y       z     vdW  Elec       q    Type
REMARK                         _______ _______ _______ _____ _____    ______ ____
ROOT
ATOM      1  C   UNL     1       2.874  -1.070  -0.673  0.00  0.00    +0.066 C 
ATOM      2  C   UNL     1       1.699  -0.126  -0.670  0.00  0.00    +0.023 A 
ATOM      3  C   UNL     1       1.660   1.241  -0.905  0.00  0.00    +0.066 A 
ATOM      4  N   UNL     1       0.414   1.642  -0.806  0.00  0.00    -0.168 NA
ATOM      5  N   UNL     1      -0.389   0.530  -0.503  0.00  0.00    -0.193 N 
ATOM      6  C   UNL     1      -1.768   0.537  -0.324  0.00  0.00    +0.196 A 
ATOM      7  S   UNL     1      -2.902   1.915  -0.414  0.00  0.00    -0.048 S 
ATOM      8  C   UNL     1      -4.388   1.005  -0.066  0.00  0.00    +0.044 A 
ATOM      9  C   UNL     1      -3.901  -0.311   0.105  0.00  0.00    +0.081 A 
ATOM     10  C   UNL     1      -4.865  -1.301   0.408  0.00  0.00    +0.032 A 
ATOM     11  C   UNL     1      -6.181  -0.981   0.523  0.00  0.00    +0.048 A 
ATOM     12  C   UNL     1      -6.633   0.324   0.350  0.00  0.00    +0.121 A 
ATOM     13  C   UNL     1      -5.718   1.323   0.052  0.00  0.00    +0.063 A 
ATOM     14  N   UNL     1      -2.566  -0.464  -0.042  0.00  0.00    -0.221 NA
ATOM     15  C   UNL     1       2.846   2.116  -1.218  0.00  0.00    +0.068 C 
ATOM     16  C   UNL     1       0.421  -0.548  -0.417  0.00  0.00    +0.135 A 
ATOM     17  N   UNL     1       0.127  -1.880  -0.130  0.00  0.00    -0.270 N 
ATOM     18  H   UNL     1      -0.790  -2.193  -0.098  0.00  0.00    +0.156 HD
ATOM     19  C   UNL     1       1.157  -2.722   0.100  0.00  0.00    +0.219 C 
ATOM     20  O   UNL     1       0.939  -3.913   0.164  0.00  0.00    -0.275 OA
ATOM     21  C   UNL     1       2.565  -2.229   0.280  0.00  0.00    +0.109 C 
ENDROOT
BRANCH   1  26
ATOM     22  N   UNL     1       5.509   0.799   1.018  0.00  0.00    -0.271 N 
ATOM     23  N   UNL     1       6.133   0.502  -0.201  0.00  0.00    -0.176 NA
ATOM     24  C   UNL     1       5.295  -0.188  -0.932  0.00  0.00    +0.064 A 
ATOM     25  C   UNL     1       5.560  -0.717  -2.318  0.00  0.00    +0.068 C 
ATOM     26  C   UNL     1       4.110  -0.344  -0.206  0.00  0.00    +0.001 A 
ATOM     27  C   UNL     1       4.268   0.271   0.988  0.00  0.00    +0.112 A 
BRANCH  22  29
ATOM     28  C   UNL     1       7.419   0.901   2.543  0.00  0.00    +0.029 C 
ATOM     29  C   UNL     1       6.099   1.554   2.127  0.00  0.00    +0.140 C 
ENDBRANCH  22  29
ENDBRANCH   1  26
BRANCH  12  30
ATOM     30  O   UNL     1      -7.955   0.616   0.471  0.00  0.00    -0.495 OA
ATOM     31  C   UNL     1      -8.623  -0.609   0.778  0.00  0.00    +0.277 C 
ENDBRANCH  12  30
TORSDOF 3
