REMARK  Name = m31
REMARK  8 active torsions:
REMARK  status: ('A' for Active; 'I' for Inactive)
REMARK    1  A    between atoms: C_1  and  C_2
REMARK    2  A    between atoms: C_7  and  C_8
REMARK    3  A    between atoms: C_11  and  C_12
REMARK    4  A    between atoms: N_17  and  C_18
REMARK    5  A    between atoms: C_18  and  C_19
REMARK    6  A    between atoms: N_21  and  C_22
REMARK    7  A    between atoms: C_22  and  C_23
REMARK    8  A    between atoms: C_31  and  C_32
REMARK                            x       y       z     vdW  Elec       q    Type
REMARK                         _______ _______ _______ _____ _____    ______ ____
ROOT
ATOM      1  C   UNL     1       2.072  -0.569  -0.224  0.00  0.00    +0.082 A 
ATOM      2  C   UNL     1       0.869  -0.091  -0.650  0.00  0.00    -0.017 A 
ATOM      3  C   UNL     1       0.763   1.308  -1.199  0.00  0.00    +0.046 C 
ATOM      4  C   UNL     1      -0.267  -0.905  -0.580  0.00  0.00    +0.076 A 
ATOM      5  C   UNL     1      -0.066  -2.197  -0.044  0.00  0.00    +0.116 A 
ATOM      6  N   UNL     1      -1.061  -3.065   0.083  0.00  0.00    -0.230 NA
ATOM      7  C   UNL     1      -2.278  -2.769  -0.282  0.00  0.00    +0.203 A 
ATOM      8  N   UNL     1      -2.594  -1.560  -0.811  0.00  0.00    -0.290 N 
ATOM      9  C   UNL     1      -1.659  -0.605  -0.983  0.00  0.00    +0.263 A 
ATOM     10  O   UNL     1      -1.952   0.478  -1.458  0.00  0.00    -0.267 OA
ATOM     11  S   UNL     1       1.671  -2.219   0.324  0.00  0.00    -0.063 S 
ENDROOT
BRANCH   1  14
ATOM     12  C   UNL     1       5.433   0.584   0.033  0.00  0.00    +0.203 A 
ATOM     13  N   UNL     1       4.523  -0.394   0.212  0.00  0.00    -0.187 NA
ATOM     14  C   UNL     1       3.375   0.109  -0.213  0.00  0.00    +0.266 A 
ATOM     15  O   UNL     1       3.632   1.358  -0.637  0.00  0.00    -0.332 OA
ATOM     16  N   UNL     1       4.809   1.609  -0.489  0.00  0.00    -0.056 NA
BRANCH  12  19
ATOM     17  C   UNL     1       7.143   2.855  -0.502  0.00  0.00    +0.044 C 
ATOM     18  C   UNL     1       7.711   1.597   0.104  0.00  0.00    -0.040 A 
ATOM     19  C   UNL     1       6.879   0.509   0.360  0.00  0.00    +0.025 A 
ATOM     20  C   UNL     1       7.411  -0.653   0.915  0.00  0.00    +0.012 A 
ATOM     21  C   UNL     1       8.756  -0.716   1.218  0.00  0.00    +0.001 A 
ATOM     22  C   UNL     1       9.576   0.369   0.967  0.00  0.00    +0.000 A 
ATOM     23  C   UNL     1       9.054   1.523   0.412  0.00  0.00    +0.004 A 
ENDBRANCH  12  19
ENDBRANCH   1  14
BRANCH   8  24
ATOM     24  C   UNL     1      -3.979  -1.287  -1.202  0.00  0.00    +0.221 C 
BRANCH  24  25
ATOM     25  C   UNL     1      -4.723  -0.695  -0.033  0.00  0.00    +0.233 C 
ATOM     26  N   UNL     1      -6.023  -0.361  -0.160  0.00  0.00    -0.311 N 
ATOM     27  H   UNL     1      -6.479  -0.503  -1.005  0.00  0.00    +0.149 HD
ATOM     28  O   UNL     1      -4.153  -0.518   1.023  0.00  0.00    -0.274 OA
BRANCH  26  29
ATOM     29  C   UNL     1      -6.746   0.215   0.976  0.00  0.00    +0.135 C 
BRANCH  29  30
ATOM     30  C   UNL     1      -8.193   0.500   0.568  0.00  0.00    +0.135 C 
ATOM     31  O   UNL     1      -8.219   1.466  -0.496  0.00  0.00    -0.375 OA
ATOM     32  C   UNL     1      -9.404   2.270  -0.307  0.00  0.00    +0.160 C 
ATOM     33  C   UNL     1      -9.460   2.475   1.229  0.00  0.00    +0.031 C 
ATOM     34  C   UNL     1      -8.963   1.107   1.757  0.00  0.00    +0.035 C 
ENDBRANCH  29  30
ENDBRANCH  26  29
ENDBRANCH  24  25
ENDBRANCH   8  24
TORSDOF 6
