REMARK  Name = m32
REMARK  5 active torsions:
REMARK  status: ('A' for Active; 'I' for Inactive)
REMARK    1  A    between atoms: C_1  and  S_2
REMARK    2  A    between atoms: S_2  and  C_5
REMARK    3  A    between atoms: C_9  and  N_10
REMARK    4  A    between atoms: C_11  and  C_13
REMARK    5  A    between atoms: C_18  and  C_19
REMARK                            x       y       z     vdW  Elec       q    Type
REMARK                         _______ _______ _______ _____ _____    ______ ____
ROOT
ATOM      1  C   UNL     1      -0.853  -2.210  -0.047  0.00  0.00    +0.082 A 
ATOM      2  C   UNL     1      -2.297  -2.086   0.175  0.00  0.00    +0.105 A 
ATOM      3  N   UNL     1      -2.784  -3.305   0.219  0.00  0.00    -0.173 NA
ATOM      4  N   UNL     1      -1.741  -4.220   0.049  0.00  0.00    -0.283 N 
ATOM      5  H   UNL     1      -1.840  -5.185   0.046  0.00  0.00    +0.188 HD
ATOM      6  C   UNL     1      -0.584  -3.562  -0.111  0.00  0.00    +0.118 A 
ENDROOT
BRANCH   2   7
ATOM      7  C   UNL     1      -3.063  -0.824   0.313  0.00  0.00    +0.007 A 
ATOM      8  C   UNL     1      -4.312  -0.696  -0.285  0.00  0.00    +0.059 A 
ATOM      9  C   UNL     1      -5.040   0.483  -0.155  0.00  0.00    +0.163 A 
ATOM     10  O   UNL     1      -6.247   0.526  -0.779  0.00  0.00    -0.485 OA
ATOM     11  C   UNL     1      -7.023   1.575  -0.210  0.00  0.00    +0.270 C 
ATOM     12  C   UNL     1      -6.176   2.854  -0.219  0.00  0.00    +0.270 C 
ATOM     13  O   UNL     1      -5.156   2.718   0.765  0.00  0.00    -0.485 OA
ATOM     14  C   UNL     1      -4.512   1.538   0.572  0.00  0.00    +0.162 A 
ATOM     15  C   UNL     1      -3.254   1.409   1.162  0.00  0.00    +0.050 A 
ATOM     16  C   UNL     1      -2.533   0.243   1.037  0.00  0.00    +0.014 A 
ENDBRANCH   2   7
BRANCH   1  19
ATOM     17  N   UNL     1       1.423  -1.382  -0.369  0.00  0.00    -0.281 N 
ATOM     18  H   UNL     1       1.735  -2.300  -0.349  0.00  0.00    +0.155 HD
ATOM     19  C   UNL     1       0.118  -1.110  -0.171  0.00  0.00    +0.252 C 
ATOM     20  O   UNL     1      -0.257   0.045  -0.094  0.00  0.00    -0.270 OA
BRANCH  17  23
ATOM     21  C   UNL     1       4.499   0.631  -0.301  0.00  0.00    +0.090 A 
ATOM     22  C   UNL     1       3.610  -0.401  -0.073  0.00  0.00    +0.050 A 
ATOM     23  C   UNL     1       2.327  -0.341  -0.602  0.00  0.00    +0.035 A 
ATOM     24  C   UNL     1       1.946   0.753  -1.369  0.00  0.00    +0.023 A 
ATOM     25  C   UNL     1       2.842   1.779  -1.597  0.00  0.00    +0.004 A 
ATOM     26  C   UNL     1       4.116   1.719  -1.065  0.00  0.00    +0.027 A 
BRANCH  21  28
ATOM     27  C   UNL     1       5.936   1.363   1.990  0.00  0.00    +0.200 C 
ATOM     28  S   UNL     1       6.124   0.559   0.375  0.00  0.00    -0.006 S 
ATOM     29  O   UNL     1       6.348  -0.839   0.509  0.00  0.00    -0.170 OA
ATOM     30  O   UNL     1       6.876   1.361  -0.526  0.00  0.00    -0.170 OA
ENDBRANCH  21  28
ENDBRANCH  17  23
ENDBRANCH   1  19
TORSDOF 4
