REMARK  Name = m33
REMARK  9 active torsions:
REMARK  status: ('A' for Active; 'I' for Inactive)
REMARK    1  A    between atoms: C_1  and  O_2
REMARK    2  A    between atoms: O_2  and  C_3
REMARK    3  A    between atoms: C_6  and  C_7
REMARK    4  A    between atoms: C_9  and  N_10
REMARK    5  A    between atoms: C_11  and  C_13
REMARK    6  A    between atoms: C_13  and  N_14
REMARK    7  A    between atoms: C_19  and  C_20
REMARK    8  A    between atoms: C_22  and  C_23
REMARK    9  A    between atoms: C_31  and  C_32
REMARK                            x       y       z     vdW  Elec       q    Type
REMARK                         _______ _______ _______ _____ _____    ______ ____
ROOT
ATOM      1  N   UNL     1       1.895   1.887  -0.303  0.00  0.00    -0.290 N 
ATOM      2  C   UNL     1       0.946   1.153  -0.915  0.00  0.00    +0.263 A 
ATOM      3  O   UNL     1       1.204   0.509  -1.916  0.00  0.00    -0.267 OA
ATOM      4  C   UNL     1      -0.417   1.146  -0.337  0.00  0.00    +0.076 A 
ATOM      5  C   UNL     1      -0.579   1.940   0.820  0.00  0.00    +0.116 A 
ATOM      6  S   UNL     1      -2.290   1.712   1.234  0.00  0.00    -0.063 S 
ATOM      7  C   UNL     1      -2.732   0.605  -0.095  0.00  0.00    +0.082 A 
ATOM      8  N   UNL     1       0.426   2.632   1.341  0.00  0.00    -0.230 NA
ATOM      9  C   UNL     1      -1.560   0.470  -0.777  0.00  0.00    -0.017 A 
ATOM     10  C   UNL     1      -1.496  -0.405  -2.002  0.00  0.00    +0.046 C 
ATOM     11  C   UNL     1       1.618   2.613   0.809  0.00  0.00    +0.203 A 
ENDROOT
BRANCH   7  12
ATOM     12  C   UNL     1      -4.035  -0.008  -0.382  0.00  0.00    +0.266 A 
ATOM     13  O   UNL     1      -4.325  -0.834  -1.401  0.00  0.00    -0.332 OA
ATOM     14  N   UNL     1      -5.491  -1.163  -1.347  0.00  0.00    -0.056 NA
ATOM     15  C   UNL     1      -6.078  -0.597  -0.322  0.00  0.00    +0.202 A 
ATOM     16  N   UNL     1      -5.152   0.151   0.311  0.00  0.00    -0.187 NA
BRANCH  15  17
ATOM     17  C   UNL     1      -7.501  -0.751   0.070  0.00  0.00    +0.022 A 
ATOM     18  C   UNL     1      -7.992  -0.090   1.194  0.00  0.00    +0.012 A 
ATOM     19  C   UNL     1      -9.317  -0.233   1.552  0.00  0.00    +0.001 A 
ATOM     20  C   UNL     1     -10.155  -1.039   0.803  0.00  0.00    +0.000 A 
ATOM     21  C   UNL     1      -9.672  -1.702  -0.311  0.00  0.00    +0.001 A 
ATOM     22  C   UNL     1      -8.349  -1.562  -0.680  0.00  0.00    +0.012 A 
ENDBRANCH  15  17
ENDBRANCH   7  12
BRANCH   1  23
ATOM     23  C   UNL     1       3.253   1.907  -0.852  0.00  0.00    +0.222 C 
BRANCH  23  26
ATOM     24  N   UNL     1       5.351   0.625  -0.584  0.00  0.00    -0.281 N 
ATOM     25  H   UNL     1       5.782   1.260  -1.177  0.00  0.00    +0.155 HD
ATOM     26  C   UNL     1       4.064   0.800  -0.228  0.00  0.00    +0.237 C 
ATOM     27  O   UNL     1       3.557   0.068   0.595  0.00  0.00    -0.274 OA
BRANCH  24  29
ATOM     28  C   UNL     1       7.459  -0.424  -0.019  0.00  0.00    +0.141 A 
ATOM     29  C   UNL     1       6.069  -0.475  -0.097  0.00  0.00    +0.076 A 
ATOM     30  C   UNL     1       5.399  -1.623   0.300  0.00  0.00    +0.030 A 
ATOM     31  C   UNL     1       6.109  -2.707   0.781  0.00  0.00    -0.048 A 
ATOM     32  C   UNL     1       5.378  -3.950   1.217  0.00  0.00    +0.044 C 
ATOM     33  C   UNL     1       7.488  -2.653   0.862  0.00  0.00    +0.007 A 
ATOM     34  C   UNL     1       8.164  -1.515   0.463  0.00  0.00    +0.048 A 
BRANCH  28  36
ATOM     35  C   UNL     1       9.514   0.445  -0.208  0.00  0.00    +0.277 C 
ATOM     36  O   UNL     1       8.122   0.697  -0.411  0.00  0.00    -0.493 OA
ENDBRANCH  28  36
ENDBRANCH  24  29
ENDBRANCH  23  26
ENDBRANCH   1  23
TORSDOF 6
