REMARK  Name = m34
REMARK  9 active torsions:
REMARK  status: ('A' for Active; 'I' for Inactive)
REMARK    1  A    between atoms: C_1  and  O_2
REMARK    2  A    between atoms: O_2  and  C_3
REMARK    3  A    between atoms: C_5  and  C_6
REMARK    4  A    between atoms: C_22  and  C_23
REMARK    5  A    between atoms: C_28  and  O_29
REMARK    6  A    between atoms: O_29  and  C_30
REMARK    7  A    between atoms: C_30  and  C_31
REMARK    8  A    between atoms: C_31  and  C_32
REMARK    9  A    between atoms: C_31  and  C_33
REMARK                            x       y       z     vdW  Elec       q    Type
REMARK                         _______ _______ _______ _____ _____    ______ ____
ROOT
ATOM      1  C   UNL     1       0.818   2.455  -0.822  0.00  0.00    +0.063 C 
ATOM      2  C   UNL     1      -0.357   2.227   0.094  0.00  0.00    +0.020 A 
ATOM      3  C   UNL     1      -0.662   2.817   1.312  0.00  0.00    +0.141 A 
ATOM      4  N   UNL     1      -1.791   2.307   1.746  0.00  0.00    -0.171 NA
ATOM      5  N   UNL     1      -2.245   1.366   0.808  0.00  0.00    -0.198 N 
ATOM      6  C   UNL     1      -3.414   0.605   0.901  0.00  0.00    +0.176 A 
ATOM      7  N   UNL     1      -3.718  -0.236  -0.059  0.00  0.00    -0.144 NA
ATOM      8  N   UNL     1      -4.877  -1.010   0.017  0.00  0.00    -0.195 N 
ATOM      9  C   UNL     1      -5.717  -0.887   1.097  0.00  0.00    +0.178 A 
ATOM     10  N   UNL     1      -6.722  -1.725   0.899  0.00  0.00    -0.128 NA
ATOM     11  N   UNL     1      -6.547  -2.341  -0.218  0.00  0.00    -0.132 NA
ATOM     12  C   UNL     1      -5.393   0.021   2.123  0.00  0.00    +0.054 A 
ATOM     13  C   UNL     1      -5.439  -1.938  -0.787  0.00  0.00    +0.152 A 
ATOM     14  C   UNL     1      -4.889  -2.422  -2.105  0.00  0.00    +0.090 C 
ATOM     15  C   UNL     1      -4.253   0.755   2.021  0.00  0.00    +0.054 A 
ATOM     16  C   UNL     1      -1.349   1.329  -0.201  0.00  0.00    +0.134 A 
ATOM     17  N   UNL     1      -1.327   0.568  -1.369  0.00  0.00    -0.270 N 
ATOM     18  H   UNL     1      -1.919  -0.192  -1.481  0.00  0.00    +0.156 HD
ATOM     19  C   UNL     1      -0.456   0.920  -2.339  0.00  0.00    +0.219 C 
ATOM     20  O   UNL     1      -0.339   0.201  -3.309  0.00  0.00    -0.275 OA
ATOM     21  C   UNL     1       0.372   2.170  -2.259  0.00  0.00    +0.109 C 
ENDROOT
BRANCH   1  26
ATOM     22  C   UNL     1       4.207   1.189   0.266  0.00  0.00    +0.162 A 
ATOM     23  C   UNL     1       4.008  -0.188   0.240  0.00  0.00    +0.162 A 
ATOM     24  C   UNL     1       2.772  -0.700  -0.121  0.00  0.00    +0.050 A 
ATOM     25  C   UNL     1       1.743   0.157  -0.465  0.00  0.00    +0.008 A 
ATOM     26  C   UNL     1       1.942   1.525  -0.445  0.00  0.00    -0.036 A 
ATOM     27  C   UNL     1       3.172   2.042  -0.080  0.00  0.00    +0.053 A 
BRANCH  22  29
ATOM     28  C   UNL     1       5.308   3.118   0.548  0.00  0.00    +0.277 C 
ATOM     29  O   UNL     1       5.417   1.696   0.625  0.00  0.00    -0.491 OA
ENDBRANCH  22  29
BRANCH  23  30
ATOM     30  O   UNL     1       5.021  -1.030   0.579  0.00  0.00    -0.488 OA
BRANCH  30  31
ATOM     31  C   UNL     1       4.508  -2.359   0.468  0.00  0.00    +0.232 C 
BRANCH  31  32
ATOM     32  C   UNL     1       5.604  -3.361   0.837  0.00  0.00    +0.020 C 
ATOM     33  C   UNL     1       6.738  -3.277  -0.186  0.00  0.00    +0.010 C 
ATOM     34  C   UNL     1       5.022  -4.776   0.839  0.00  0.00    +0.010 C 
ENDBRANCH  31  32
ENDBRANCH  30  31
ENDBRANCH  23  30
ENDBRANCH   1  26
TORSDOF 5
