REMARK  Name = m35
REMARK  4 active torsions:
REMARK  status: ('A' for Active; 'I' for Inactive)
REMARK    1  A    between atoms: C_2  and  C_3
REMARK    2  A    between atoms: C_3  and  N_4
REMARK    3  A    between atoms: C_11  and  C_12
REMARK    4  A    between atoms: N_23  and  C_24
REMARK                            x       y       z     vdW  Elec       q    Type
REMARK                         _______ _______ _______ _____ _____    ______ ____
ROOT
ATOM      1  N   UNL     1       0.670  -1.588  -0.722  0.00  0.00    -0.305 N 
ATOM      2  C   UNL     1       1.698  -0.743  -0.376  0.00  0.00    +0.238 A 
ATOM      3  N   UNL     1       2.719  -1.197   0.403  0.00  0.00    -0.160 N 
ATOM      4  N   UNL     1       3.594  -0.117   0.584  0.00  0.00    -0.140 NA
ATOM      5  C   UNL     1       3.079   0.905  -0.064  0.00  0.00    +0.184 A 
ATOM      6  C   UNL     1       2.732  -2.472   0.828  0.00  0.00    +0.279 A 
ATOM      7  O   UNL     1       3.649  -2.873   1.522  0.00  0.00    -0.265 OA
ATOM      8  C   UNL     1       1.681  -3.346   0.468  0.00  0.00    +0.038 A 
ATOM      9  C   UNL     1       1.464  -4.804   0.808  0.00  0.00    +0.043 C 
ATOM     10  C   UNL     1       0.411  -5.300  -0.206  0.00  0.00    +0.011 C 
ATOM     11  C   UNL     1      -0.335  -3.993  -0.556  0.00  0.00    +0.054 C 
ATOM     12  N   UNL     1       1.931   0.525  -0.641  0.00  0.00    -0.190 NA
ATOM     13  C   UNL     1       0.668  -2.888  -0.301  0.00  0.00    +0.031 A 
ENDROOT
BRANCH   5  14
ATOM     14  C   UNL     1       3.674   2.262  -0.143  0.00  0.00    +0.021 A 
ATOM     15  C   UNL     1       3.034   3.264  -0.869  0.00  0.00    +0.011 A 
ATOM     16  C   UNL     1       3.589   4.526  -0.935  0.00  0.00    +0.001 A 
ATOM     17  C   UNL     1       4.784   4.793  -0.292  0.00  0.00    +0.000 A 
ATOM     18  C   UNL     1       5.426   3.800   0.425  0.00  0.00    +0.001 A 
ATOM     19  C   UNL     1       4.878   2.536   0.502  0.00  0.00    +0.011 A 
ENDBRANCH   5  14
BRANCH   1  20
ATOM     20  C   UNL     1      -0.430  -1.092  -1.553  0.00  0.00    +0.221 C 
BRANCH  20  22
ATOM     21  O   UNL     1      -1.390  -0.563   0.537  0.00  0.00    -0.274 OA
ATOM     22  C   UNL     1      -1.520  -0.542  -0.669  0.00  0.00    +0.237 C 
ATOM     23  N   UNL     1      -2.640  -0.033  -1.218  0.00  0.00    -0.282 N 
ATOM     24  H   UNL     1      -2.784  -0.098  -2.176  0.00  0.00    +0.155 HD
BRANCH  23  25
ATOM     25  C   UNL     1      -3.598   0.589  -0.406  0.00  0.00    +0.069 A 
ATOM     26  C   UNL     1      -4.932   0.616  -0.798  0.00  0.00    +0.147 A 
ATOM     27  F   UNL     1      -5.307   0.038  -1.960  0.00  0.00    -0.203 F 
ATOM     28  C   UNL     1      -5.875   1.226   0.008  0.00  0.00    +0.078 A 
ATOM     29  C   UNL     1      -5.490   1.819   1.198  0.00  0.00    +0.126 A 
ATOM     30  F   UNL     1      -6.413   2.419   1.982  0.00  0.00    -0.205 F 
ATOM     31  C   UNL     1      -4.161   1.798   1.587  0.00  0.00    +0.040 A 
ATOM     32  C   UNL     1      -3.216   1.185   0.788  0.00  0.00    +0.029 A 
ENDBRANCH  23  25
ENDBRANCH  20  22
ENDBRANCH   1  20
TORSDOF 4
