REMARK  Name = m37
REMARK  9 active torsions:
REMARK  status: ('A' for Active; 'I' for Inactive)
REMARK    1  A    between atoms: C_1  and  C_2
REMARK    2  A    between atoms: C_2  and  C_3
REMARK    3  A    between atoms: C_9  and  C_11
REMARK    4  A    between atoms: C_11  and  N_12
REMARK    5  A    between atoms: C_16  and  C_17
REMARK    6  A    between atoms: C_17  and  O_19
REMARK    7  A    between atoms: O_19  and  C_20
REMARK    8  A    between atoms: C_22  and  C_23
REMARK    9  A    between atoms: N_28  and  C_29
REMARK                            x       y       z     vdW  Elec       q    Type
REMARK                         _______ _______ _______ _____ _____    ______ ____
ROOT
ATOM      1  N   UNL     1      -0.690   0.099   0.911  0.00  0.00    -0.251 N 
ATOM      2  C   UNL     1      -0.228  -1.158   0.824  0.00  0.00    +0.338 A 
ATOM      3  O   UNL     1      -0.997  -2.075   1.034  0.00  0.00    -0.246 OA
ATOM      4  N   UNL     1       1.045  -1.448   0.504  0.00  0.00    -0.246 N 
ATOM      5  C   UNL     1       1.961  -0.439   0.256  0.00  0.00    +0.155 A 
ATOM      6  C   UNL     1       1.528   0.894   0.340  0.00  0.00    +0.096 A 
ATOM      7  C   UNL     1       2.439   1.934   0.092  0.00  0.00    +0.077 A 
ATOM      8  C   UNL     1       3.751   1.582  -0.231  0.00  0.00    +0.039 A 
ATOM      9  C   UNL     1       4.096   0.241  -0.294  0.00  0.00    +0.048 A 
ATOM     10  N   UNL     1       3.218  -0.711  -0.056  0.00  0.00    -0.233 NA
ATOM     11  C   UNL     1       0.121   1.157   0.689  0.00  0.00    +0.267 A 
ATOM     12  O   UNL     1      -0.299   2.295   0.774  0.00  0.00    -0.267 OA
ENDROOT
BRANCH   4  13
ATOM     13  C   UNL     1       1.450  -2.787   0.426  0.00  0.00    +0.053 A 
ATOM     14  C   UNL     1       2.316  -3.194  -0.581  0.00  0.00    +0.026 A 
ATOM     15  C   UNL     1       2.719  -4.513  -0.651  0.00  0.00    +0.002 A 
ATOM     16  C   UNL     1       2.252  -5.430   0.272  0.00  0.00    +0.000 A 
ATOM     17  C   UNL     1       1.386  -5.029   1.273  0.00  0.00    +0.002 A 
ATOM     18  C   UNL     1       0.984  -3.710   1.352  0.00  0.00    +0.026 A 
ENDBRANCH   4  13
BRANCH   9  19
ATOM     19  C   UNL     1       5.513  -0.137  -0.643  0.00  0.00    +0.038 C 
ATOM     20  C   UNL     1       6.395   0.940  -1.278  0.00  0.00    +0.010 C 
ATOM     21  C   UNL     1       5.876  -0.223  -2.126  0.00  0.00    +0.010 C 
ENDBRANCH   9  19
BRANCH   7  22
ATOM     22  C   UNL     1       2.023   3.353   0.172  0.00  0.00    +0.340 C 
ATOM     23  O   UNL     1       1.058   3.739  -0.456  0.00  0.00    -0.245 OA
BRANCH  22  24
ATOM     24  O   UNL     1       2.716   4.216   0.939  0.00  0.00    -0.464 OA
ATOM     25  C   UNL     1       2.309   5.608   1.017  0.00  0.00    +0.280 C 
ENDBRANCH  22  24
ENDBRANCH   7  22
BRANCH   1  26
ATOM     26  C   UNL     1      -2.094   0.328   1.260  0.00  0.00    +0.225 C 
BRANCH  26  29
ATOM     27  C   UNL     1      -5.090   0.518  -1.127  0.00  0.00    +0.076 C 
ATOM     28  N   UNL     1      -4.252   0.585   0.078  0.00  0.00    -0.297 N 
ATOM     29  C   UNL     1      -2.921   0.382   0.002  0.00  0.00    +0.236 C 
ATOM     30  O   UNL     1      -2.390   0.243  -1.080  0.00  0.00    -0.274 OA
ATOM     31  C   UNL     1      -4.891   0.877   1.368  0.00  0.00    +0.108 C 
ATOM     32  C   UNL     1      -6.035  -0.118   1.588  0.00  0.00    +0.019 C 
ATOM     33  C   UNL     1      -6.986  -0.069   0.389  0.00  0.00    +0.003 C 
ATOM     34  C   UNL     1      -6.231  -0.473  -0.879  0.00  0.00    +0.022 C 
BRANCH  27  36
ATOM     35  C   UNL     1      -5.134  -0.080  -3.552  0.00  0.00    +0.006 C 
ATOM     36  C   UNL     1      -4.246   0.044  -2.312  0.00  0.00    +0.019 C 
ENDBRANCH  27  36
ENDBRANCH  26  29
ENDBRANCH   1  26
TORSDOF 7
