REMARK  Name = m38
REMARK  4 active torsions:
REMARK  status: ('A' for Active; 'I' for Inactive)
REMARK    1  A    between atoms: C_2  and  C_3
REMARK    2  A    between atoms: C_3  and  N_4
REMARK    3  A    between atoms: C_11  and  C_12
REMARK    4  A    between atoms: N_23  and  C_24
REMARK                            x       y       z     vdW  Elec       q    Type
REMARK                         _______ _______ _______ _____ _____    ______ ____
ROOT
ATOM      1  N   UNL     1       0.824  -1.594  -0.777  0.00  0.00    -0.305 N 
ATOM      2  C   UNL     1       1.817  -0.721  -0.399  0.00  0.00    +0.238 A 
ATOM      3  N   UNL     1       2.825  -1.148   0.411  0.00  0.00    -0.160 N 
ATOM      4  N   UNL     1       3.664  -0.044   0.621  0.00  0.00    -0.140 NA
ATOM      5  C   UNL     1       3.140   0.964  -0.043  0.00  0.00    +0.184 A 
ATOM      6  C   UNL     1       2.861  -2.422   0.836  0.00  0.00    +0.279 A 
ATOM      7  O   UNL     1       3.767  -2.799   1.558  0.00  0.00    -0.265 OA
ATOM      8  C   UNL     1       1.847  -3.325   0.443  0.00  0.00    +0.038 A 
ATOM      9  C   UNL     1       1.660  -4.789   0.775  0.00  0.00    +0.043 C 
ATOM     10  C   UNL     1       0.653  -5.312  -0.272  0.00  0.00    +0.011 C 
ATOM     11  C   UNL     1      -0.117  -4.027  -0.644  0.00  0.00    +0.054 C 
ATOM     12  N   UNL     1       2.022   0.553  -0.655  0.00  0.00    -0.190 NA
ATOM     13  C   UNL     1       0.846  -2.894  -0.357  0.00  0.00    +0.031 A 
ENDROOT
BRANCH   5  14
ATOM     14  C   UNL     1       3.699   2.337  -0.103  0.00  0.00    +0.021 A 
ATOM     15  C   UNL     1       3.055   3.322  -0.847  0.00  0.00    +0.011 A 
ATOM     16  C   UNL     1       3.576   4.600  -0.895  0.00  0.00    +0.001 A 
ATOM     17  C   UNL     1       4.742   4.899  -0.215  0.00  0.00    +0.000 A 
ATOM     18  C   UNL     1       5.390   3.923   0.521  0.00  0.00    +0.001 A 
ATOM     19  C   UNL     1       4.874   2.644   0.581  0.00  0.00    +0.011 A 
ENDBRANCH   5  14
BRANCH   1  20
ATOM     20  C   UNL     1      -0.262  -1.128  -1.643  0.00  0.00    +0.221 C 
BRANCH  20  22
ATOM     21  O   UNL     1      -1.302  -0.629   0.417  0.00  0.00    -0.274 OA
ATOM     22  C   UNL     1      -1.394  -0.611  -0.793  0.00  0.00    +0.237 C 
ATOM     23  N   UNL     1      -2.511  -0.132  -1.376  0.00  0.00    -0.284 N 
ATOM     24  H   UNL     1      -2.619  -0.191  -2.339  0.00  0.00    +0.155 HD
BRANCH  23  25
ATOM     25  C   UNL     1      -3.515   0.450  -0.594  0.00  0.00    +0.036 A 
ATOM     26  C   UNL     1      -4.851   0.255  -0.919  0.00  0.00    +0.064 A 
ATOM     27  C   UNL     1      -5.841   0.826  -0.141  0.00  0.00    +0.160 A 
ATOM     28  F   UNL     1      -7.142   0.631  -0.452  0.00  0.00    -0.202 F 
ATOM     29  C   UNL     1      -5.500   1.603   0.956  0.00  0.00    +0.159 A 
ATOM     30  F   UNL     1      -6.468   2.165   1.712  0.00  0.00    -0.202 F 
ATOM     31  C   UNL     1      -4.168   1.803   1.277  0.00  0.00    +0.043 A 
ATOM     32  C   UNL     1      -3.177   1.229   0.505  0.00  0.00    +0.026 A 
ENDBRANCH  23  25
ENDBRANCH  20  22
ENDBRANCH   1  20
TORSDOF 4
