REMARK  Name = m39
REMARK  10 active torsions:
REMARK  status: ('A' for Active; 'I' for Inactive)
REMARK    1  A    between atoms: C_1  and  O_2
REMARK    2  A    between atoms: O_2  and  C_3
REMARK    3  A    between atoms: C_3  and  C_5
REMARK    4  A    between atoms: C_7  and  C_8
REMARK    5  A    between atoms: N_14  and  C_15
REMARK    6  A    between atoms: C_15  and  C_16
REMARK    7  A    between atoms: C_22  and  C_23
REMARK    8  A    between atoms: N_27  and  C_28
REMARK    9  A    between atoms: C_33  and  O_34
REMARK   10  A    between atoms: O_34  and  C_35
REMARK                            x       y       z     vdW  Elec       q    Type
REMARK                         _______ _______ _______ _____ _____    ______ ____
ROOT
ATOM      1  C   UNL     1       2.219   2.516  -0.326  0.00  0.00    +0.077 A 
ATOM      2  C   UNL     1       1.482   1.344  -0.090  0.00  0.00    +0.096 A 
ATOM      3  C   UNL     1       0.093   1.381   0.397  0.00  0.00    +0.267 A 
ATOM      4  N   UNL     1      -0.548   0.206   0.588  0.00  0.00    -0.251 N 
ATOM      5  C   UNL     1       0.062  -0.964   0.341  0.00  0.00    +0.339 A 
ATOM      6  N   UNL     1       1.329  -1.049  -0.099  0.00  0.00    -0.242 N 
ATOM      7  O   UNL     1      -0.558  -1.993   0.528  0.00  0.00    -0.246 OA
ATOM      8  O   UNL     1      -0.463   2.439   0.621  0.00  0.00    -0.267 OA
ATOM      9  C   UNL     1       2.076   0.093  -0.334  0.00  0.00    +0.155 A 
ATOM     10  N   UNL     1       3.322   0.024  -0.772  0.00  0.00    -0.233 NA
ATOM     11  C   UNL     1       4.040   1.105  -0.998  0.00  0.00    +0.041 A 
ATOM     12  C   UNL     1       5.455   0.956  -1.497  0.00  0.00    +0.065 C 
ATOM     13  C   UNL     1       3.529   2.375  -0.788  0.00  0.00    +0.039 A 
ENDROOT
BRANCH   6  14
ATOM     14  C   UNL     1       1.897  -2.309  -0.334  0.00  0.00    +0.094 A 
ATOM     15  C   UNL     1       2.578  -2.970   0.685  0.00  0.00    +0.144 A 
ATOM     16  C   UNL     1       3.133  -4.217   0.449  0.00  0.00    +0.048 A 
ATOM     17  C   UNL     1       3.019  -4.799  -0.800  0.00  0.00    +0.004 A 
ATOM     18  C   UNL     1       2.348  -4.141  -1.815  0.00  0.00    +0.002 A 
ATOM     19  C   UNL     1       1.787  -2.899  -1.585  0.00  0.00    +0.030 A 
BRANCH  15  20
ATOM     20  O   UNL     1       2.689  -2.396   1.913  0.00  0.00    -0.493 OA
ATOM     21  C   UNL     1       3.420  -3.311   2.732  0.00  0.00    +0.277 C 
ENDBRANCH  15  20
ENDBRANCH   6  14
BRANCH   1  22
ATOM     22  C   UNL     1       1.629   3.853  -0.086  0.00  0.00    +0.340 C 
ATOM     23  O   UNL     1       0.561   4.144  -0.586  0.00  0.00    -0.245 OA
BRANCH  22  25
ATOM     24  C   UNL     1       1.698   6.058   0.920  0.00  0.00    +0.280 C 
ATOM     25  O   UNL     1       2.277   4.746   0.686  0.00  0.00    -0.464 OA
ENDBRANCH  22  25
ENDBRANCH   1  22
BRANCH   4  26
ATOM     26  C   UNL     1      -1.931   0.210   1.071  0.00  0.00    +0.225 C 
BRANCH  26  27
ATOM     27  C   UNL     1      -2.874   0.249  -0.103  0.00  0.00    +0.236 C 
ATOM     28  N   UNL     1      -4.206   0.259   0.102  0.00  0.00    -0.300 N 
ATOM     29  C   UNL     1      -5.138   0.303  -1.034  0.00  0.00    +0.111 C 
ATOM     30  C   UNL     1      -6.129  -0.862  -0.897  0.00  0.00    +0.003 C 
ATOM     31  C   UNL     1      -7.189  -0.760  -1.996  0.00  0.00    +0.009 C 
ATOM     32  C   UNL     1      -6.805  -0.792   0.474  0.00  0.00    +0.006 C 
ATOM     33  C   UNL     1      -5.749  -0.927   1.573  0.00  0.00    +0.019 C 
ATOM     34  C   UNL     1      -4.753   0.232   1.465  0.00  0.00    +0.108 C 
ATOM     35  O   UNL     1      -2.434   0.272  -1.234  0.00  0.00    -0.274 OA
ENDBRANCH  26  27
ENDBRANCH   4  26
TORSDOF 6
