REMARK  Name = m40
REMARK  7 active torsions:
REMARK  status: ('A' for Active; 'I' for Inactive)
REMARK    1  A    between atoms: C_1  and  N_2
REMARK    2  A    between atoms: C_3  and  C_5
REMARK    3  A    between atoms: C_13  and  C_14
REMARK    4  A    between atoms: C_17  and  C_19
REMARK    5  A    between atoms: C_19  and  N_20
REMARK    6  A    between atoms: C_21  and  C_22
REMARK    7  A    between atoms: C_24  and  C_25
REMARK                            x       y       z     vdW  Elec       q    Type
REMARK                         _______ _______ _______ _____ _____    ______ ____
ROOT
ATOM      1  C   UNL     1       1.517   0.050  -0.867  0.00  0.00    +0.167 C 
ATOM      2  O   UNL     1       1.733   1.154  -1.745  0.00  0.00    -0.369 OA
ATOM      3  C   UNL     1       0.542   1.344  -2.506  0.00  0.00    +0.179 C 
ATOM      4  C   UNL     1      -0.578   1.850  -1.590  0.00  0.00    +0.136 C 
ATOM      5  N   UNL     1      -0.736   0.891  -0.484  0.00  0.00    -0.295 N 
ATOM      6  C   UNL     1      -1.952   0.445  -0.112  0.00  0.00    +0.236 C 
ATOM      7  O   UNL     1      -2.055  -0.345   0.803  0.00  0.00    -0.274 OA
ATOM      8  C   UNL     1       0.487   0.437   0.201  0.00  0.00    +0.144 C 
ENDROOT
BRANCH   1  10
ATOM      9  C   UNL     1       3.624   0.645   0.307  0.00  0.00    +0.082 A 
ATOM     10  C   UNL     1       2.815  -0.323  -0.199  0.00  0.00    +0.011 A 
ATOM     11  C   UNL     1       3.196  -1.673  -0.105  0.00  0.00    +0.014 A 
ATOM     12  C   UNL     1       4.432  -1.915   0.543  0.00  0.00    +0.109 A 
ATOM     13  N   UNL     1       4.919  -3.124   0.712  0.00  0.00    -0.248 NA
ATOM     14  C   UNL     1       4.271  -4.188   0.279  0.00  0.00    +0.112 A 
ATOM     15  C   UNL     1       3.052  -4.053  -0.370  0.00  0.00    +0.020 A 
ATOM     16  C   UNL     1       2.503  -2.821  -0.571  0.00  0.00    +0.012 A 
ATOM     17  S   UNL     1       4.992  -0.285   0.974  0.00  0.00    -0.064 S 
BRANCH   9  21
ATOM     18  C   UNL     1       4.133   4.361   0.874  0.00  0.00    +0.128 C 
ATOM     19  N   UNL     1       4.338   2.910   0.871  0.00  0.00    -0.314 N 
ATOM     20  H   UNL     1       5.136   2.533   1.272  0.00  0.00    +0.149 HD
ATOM     21  C   UNL     1       3.418   2.101   0.310  0.00  0.00    +0.251 C 
ATOM     22  O   UNL     1       2.417   2.574  -0.193  0.00  0.00    -0.270 OA
ENDBRANCH   9  21
ENDBRANCH   1  10
BRANCH   6  23
ATOM     23  C   UNL     1      -3.184   0.928  -0.832  0.00  0.00    +0.222 C 
BRANCH  23  24
ATOM     24  N   UNL     1      -4.371   0.302  -0.245  0.00  0.00    -0.288 N 
ATOM     25  C   UNL     1      -4.824  -0.868  -0.733  0.00  0.00    +0.349 A 
ATOM     26  O   UNL     1      -4.238  -1.400  -1.660  0.00  0.00    -0.244 OA
ATOM     27  N   UNL     1      -5.901  -1.460  -0.208  0.00  0.00    -0.198 NA
ATOM     28  C   UNL     1      -6.554  -0.907   0.794  0.00  0.00    +0.045 A 
ATOM     29  C   UNL     1      -7.770  -1.586   1.368  0.00  0.00    +0.066 C 
ATOM     30  C   UNL     1      -6.115   0.310   1.323  0.00  0.00    +0.044 A 
ATOM     31  C   UNL     1      -5.015   0.905   0.788  0.00  0.00    +0.023 A 
ATOM     32  C   UNL     1      -4.516   2.218   1.335  0.00  0.00    +0.064 C 
ENDBRANCH  23  24
ENDBRANCH   6  23
TORSDOF 4
