REMARK  Name = m41
REMARK  4 active torsions:
REMARK  status: ('A' for Active; 'I' for Inactive)
REMARK    1  A    between atoms: C_1  and  O_2
REMARK    2  A    between atoms: O_2  and  C_3
REMARK    3  A    between atoms: C_7  and  C_8
REMARK    4  A    between atoms: C_12  and  C_13
REMARK                            x       y       z     vdW  Elec       q    Type
REMARK                         _______ _______ _______ _____ _____    ______ ____
ROOT
ATOM      1  C   UNL     1       2.486   0.262  -0.209  0.00  0.00    +0.103 A 
ATOM      2  C   UNL     1       1.396  -0.587  -0.117  0.00  0.00    +0.134 A 
ATOM      3  N   UNL     1       1.905  -1.889  -0.063  0.00  0.00    -0.303 N 
ATOM      4  C   UNL     1       1.343  -3.243  -0.003  0.00  0.00    +0.148 C 
ATOM      5  C   UNL     1       2.369  -4.269   0.538  0.00  0.00    +0.197 C 
ATOM      6  S   UNL     1       3.918  -3.397   0.055  0.00  0.00    +0.032 S 
ATOM      7  O   UNL     1       4.837  -3.293   1.134  0.00  0.00    -0.166 OA
ATOM      8  O   UNL     1       4.321  -3.710  -1.272  0.00  0.00    -0.166 OA
ATOM      9  C   UNL     1       3.246  -1.753  -0.086  0.00  0.00    +0.252 A 
ATOM     10  N   UNL     1       3.588  -0.501  -0.188  0.00  0.00    -0.211 NA
ENDROOT
BRANCH   2  11
ATOM     11  C   UNL     1      -0.016  -0.198  -0.092  0.00  0.00    +0.268 C 
ATOM     12  N   UNL     1      -0.974  -1.142  -0.008  0.00  0.00    -0.259 N 
ATOM     13  H   UNL     1      -0.728  -2.080   0.035  0.00  0.00    +0.157 HD
ATOM     14  C   UNL     1      -2.308  -0.775   0.016  0.00  0.00    +0.166 A 
ATOM     15  S   UNL     1      -3.020   0.863  -0.042  0.00  0.00    -0.052 S 
ATOM     16  C   UNL     1      -4.725   0.368   0.033  0.00  0.00    +0.043 A 
ATOM     17  C   UNL     1      -4.626  -1.040   0.107  0.00  0.00    +0.080 A 
ATOM     18  C   UNL     1      -5.847  -1.749   0.187  0.00  0.00    +0.032 A 
ATOM     19  C   UNL     1      -7.045  -1.083   0.190  0.00  0.00    +0.040 A 
ATOM     20  C   UNL     1      -7.105   0.303   0.116  0.00  0.00    +0.125 A 
ATOM     21  F   UNL     1      -8.299   0.936   0.121  0.00  0.00    -0.205 F 
ATOM     22  C   UNL     1      -5.928   1.028   0.037  0.00  0.00    +0.055 A 
ATOM     23  N   UNL     1      -3.371  -1.540   0.093  0.00  0.00    -0.225 NA
ATOM     24  O   UNL     1      -0.324   0.978  -0.146  0.00  0.00    -0.268 OA
ENDBRANCH   2  11
BRANCH   1  27
ATOM     25  C   UNL     1       3.324   3.894   0.295  0.00  0.00    +0.121 A 
ATOM     26  C   UNL     1       3.374   2.513   0.385  0.00  0.00    +0.055 A 
ATOM     27  C   UNL     1       2.443   1.740  -0.306  0.00  0.00    +0.006 A 
ATOM     28  C   UNL     1       1.474   2.361  -1.094  0.00  0.00    +0.010 A 
ATOM     29  C   UNL     1       1.437   3.738  -1.183  0.00  0.00    +0.004 A 
ATOM     30  C   UNL     1       2.357   4.505  -0.492  0.00  0.00    +0.045 A 
BRANCH  25  32
ATOM     31  C   UNL     1       3.924   6.017   0.676  0.00  0.00    +0.277 C 
ATOM     32  O   UNL     1       4.226   4.652   0.972  0.00  0.00    -0.495 OA
ENDBRANCH  25  32
ENDBRANCH   1  27
TORSDOF 3
