REMARK  Name = m42
REMARK  9 active torsions:
REMARK  status: ('A' for Active; 'I' for Inactive)
REMARK    1  A    between atoms: C_1  and  O_2
REMARK    2  A    between atoms: O_2  and  C_3
REMARK    3  A    between atoms: C_6  and  C_7
REMARK    4  A    between atoms: C_9  and  N_10
REMARK    5  A    between atoms: C_11  and  C_13
REMARK    6  A    between atoms: C_13  and  N_14
REMARK    7  A    between atoms: C_19  and  C_20
REMARK    8  A    between atoms: C_22  and  C_23
REMARK    9  A    between atoms: C_31  and  C_32
REMARK                            x       y       z     vdW  Elec       q    Type
REMARK                         _______ _______ _______ _____ _____    ______ ____
ROOT
ATOM      1  N   UNL     1       1.916   1.889  -0.298  0.00  0.00    -0.290 N 
ATOM      2  C   UNL     1       0.967   1.157  -0.912  0.00  0.00    +0.263 A 
ATOM      3  O   UNL     1       1.224   0.515  -1.916  0.00  0.00    -0.267 OA
ATOM      4  C   UNL     1      -0.396   1.148  -0.335  0.00  0.00    +0.076 A 
ATOM      5  C   UNL     1      -0.559   1.940   0.824  0.00  0.00    +0.116 A 
ATOM      6  S   UNL     1      -2.270   1.711   1.237  0.00  0.00    -0.063 S 
ATOM      7  C   UNL     1      -2.712   0.608  -0.095  0.00  0.00    +0.082 A 
ATOM      8  N   UNL     1       0.447   2.630   1.347  0.00  0.00    -0.230 NA
ATOM      9  C   UNL     1      -1.540   0.474  -0.777  0.00  0.00    -0.017 A 
ATOM     10  C   UNL     1      -1.476  -0.397  -2.005  0.00  0.00    +0.046 C 
ATOM     11  C   UNL     1       1.639   2.612   0.816  0.00  0.00    +0.203 A 
ENDROOT
BRANCH   7  12
ATOM     12  C   UNL     1      -4.015  -0.003  -0.384  0.00  0.00    +0.266 A 
ATOM     13  O   UNL     1      -4.306  -0.826  -1.406  0.00  0.00    -0.332 OA
ATOM     14  N   UNL     1      -5.472  -1.154  -1.352  0.00  0.00    -0.056 NA
ATOM     15  C   UNL     1      -6.058  -0.591  -0.327  0.00  0.00    +0.202 A 
ATOM     16  N   UNL     1      -5.132   0.155   0.308  0.00  0.00    -0.187 NA
BRANCH  15  17
ATOM     17  C   UNL     1      -7.482  -0.745   0.064  0.00  0.00    +0.025 A 
ATOM     18  C   UNL     1      -7.992  -0.092   1.189  0.00  0.00    +0.031 A 
ATOM     19  C   UNL     1      -9.323  -0.258   1.514  0.00  0.00    +0.111 A 
ATOM     20  N   UNL     1     -10.107  -1.028   0.785  0.00  0.00    -0.263 NA
ATOM     21  C   UNL     1      -9.664  -1.666  -0.281  0.00  0.00    +0.111 A 
ATOM     22  C   UNL     1      -8.348  -1.551  -0.679  0.00  0.00    +0.031 A 
ENDBRANCH  15  17
ENDBRANCH   7  12
BRANCH   1  23
ATOM     23  C   UNL     1       3.274   1.909  -0.847  0.00  0.00    +0.222 C 
BRANCH  23  26
ATOM     24  N   UNL     1       5.372   0.625  -0.582  0.00  0.00    -0.281 N 
ATOM     25  H   UNL     1       5.802   1.262  -1.173  0.00  0.00    +0.155 HD
ATOM     26  C   UNL     1       4.084   0.800  -0.225  0.00  0.00    +0.237 C 
ATOM     27  O   UNL     1       3.576   0.066   0.596  0.00  0.00    -0.274 OA
BRANCH  24  29
ATOM     28  C   UNL     1       7.479  -0.426  -0.020  0.00  0.00    +0.141 A 
ATOM     29  C   UNL     1       6.089  -0.476  -0.097  0.00  0.00    +0.076 A 
ATOM     30  C   UNL     1       5.418  -1.625   0.296  0.00  0.00    +0.030 A 
ATOM     31  C   UNL     1       6.127  -2.710   0.774  0.00  0.00    -0.048 A 
ATOM     32  C   UNL     1       5.396  -3.955   1.207  0.00  0.00    +0.044 C 
ATOM     33  C   UNL     1       7.507  -2.657   0.856  0.00  0.00    +0.007 A 
ATOM     34  C   UNL     1       8.183  -1.518   0.460  0.00  0.00    +0.048 A 
BRANCH  28  36
ATOM     35  C   UNL     1       9.534   0.443  -0.205  0.00  0.00    +0.277 C 
ATOM     36  O   UNL     1       8.143   0.696  -0.408  0.00  0.00    -0.493 OA
ENDBRANCH  28  36
ENDBRANCH  24  29
ENDBRANCH  23  26
ENDBRANCH   1  23
TORSDOF 6
