REMARK  Name = m43
REMARK  9 active torsions:
REMARK  status: ('A' for Active; 'I' for Inactive)
REMARK    1  A    between atoms: C_1  and  C_2
REMARK    2  A    between atoms: N_5  and  S_6
REMARK    3  A    between atoms: S_6  and  C_9
REMARK    4  A    between atoms: C_11  and  C_12
REMARK    5  A    between atoms: C_14  and  C_15
REMARK    6  A    between atoms: C_16  and  C_17
REMARK    7  A    between atoms: C_22  and  C_23
REMARK    8  A    between atoms: N_27  and  C_28
REMARK    9  A    between atoms: C_29  and  C_30
REMARK                            x       y       z     vdW  Elec       q    Type
REMARK                         _______ _______ _______ _____ _____    ______ ____
ROOT
ATOM      1  C   UNL     1      -2.911   1.008   0.784  0.00  0.00    +0.130 A 
ATOM      2  C   UNL     1      -3.047   2.034  -0.087  0.00  0.00    +0.043 A 
ATOM      3  C   UNL     1      -4.345   2.693  -0.475  0.00  0.00    +0.065 C 
ATOM      4  N   UNL     1      -1.814   2.377  -0.549  0.00  0.00    -0.344 N 
ATOM      5  C   UNL     1      -1.527   3.446  -1.509  0.00  0.00    +0.149 C 
ATOM      6  C   UNL     1      -0.883   1.550   0.033  0.00  0.00    +0.076 A 
ATOM      7  C   UNL     1      -1.548   0.692   0.864  0.00  0.00    +0.059 A 
ENDROOT
BRANCH   6   8
ATOM      8  C   UNL     1       0.568   1.581  -0.199  0.00  0.00    +0.126 A 
ATOM      9  S   UNL     1       1.848   0.555   0.513  0.00  0.00    -0.061 S 
ATOM     10  C   UNL     1       3.230   1.307  -0.338  0.00  0.00    +0.097 A 
ATOM     11  C   UNL     1       2.573   2.279  -1.082  0.00  0.00    +0.058 A 
ATOM     12  C   UNL     1       3.350   3.202  -1.985  0.00  0.00    +0.067 C 
ATOM     13  N   UNL     1       1.278   2.384  -0.990  0.00  0.00    -0.242 NA
BRANCH  10  14
ATOM     14  C   UNL     1       4.657   0.990  -0.265  0.00  0.00    +0.255 C 
ATOM     15  N   UNL     1       5.072  -0.100   0.410  0.00  0.00    -0.297 N 
ATOM     16  C   UNL     1       6.452  -0.192   0.908  0.00  0.00    +0.108 C 
ATOM     17  C   UNL     1       7.077  -1.492   0.405  0.00  0.00    +0.022 C 
ATOM     18  C   UNL     1       6.185  -2.671   0.800  0.00  0.00    -0.011 C 
ATOM     19  C   UNL     1       6.825  -3.977   0.325  0.00  0.00    +0.007 C 
ATOM     20  C   UNL     1       4.808  -2.512   0.152  0.00  0.00    +0.022 C 
ATOM     21  C   UNL     1       4.156  -1.222   0.657  0.00  0.00    +0.108 C 
ATOM     22  O   UNL     1       5.470   1.711  -0.815  0.00  0.00    -0.269 OA
ENDBRANCH  10  14
ENDBRANCH   6   8
BRANCH   1  23
ATOM     23  S   UNL     1      -4.215   0.207   1.657  0.00  0.00    +0.075 S 
ATOM     24  O   UNL     1      -3.601  -0.842   2.393  0.00  0.00    -0.150 OA
ATOM     25  O   UNL     1      -5.004   1.250   2.213  0.00  0.00    -0.150 OA
BRANCH  23  31
ATOM     26  C   UNL     1      -4.634  -4.227  -2.767  0.00  0.00    +0.089 C 
ATOM     27  C   UNL     1      -4.428  -3.163  -1.720  0.00  0.00    +0.136 A 
ATOM     28  O   UNL     1      -3.274  -2.846  -1.116  0.00  0.00    -0.358 OA
ATOM     29  N   UNL     1      -3.416  -1.945  -0.322  0.00  0.00    -0.062 NA
ATOM     30  C   UNL     1      -4.659  -1.544  -0.271  0.00  0.00    +0.181 A 
ATOM     31  N   UNL     1      -5.179  -0.535   0.534  0.00  0.00    -0.197 N 
ATOM     32  H   UNL     1      -6.107  -0.268   0.437  0.00  0.00    +0.175 HD
ATOM     33  C   UNL     1      -5.373  -2.345  -1.204  0.00  0.00    +0.092 A 
ENDBRANCH  23  31
ENDBRANCH   1  23
TORSDOF 4
