REMARK  Name = m44
REMARK  11 active torsions:
REMARK  status: ('A' for Active; 'I' for Inactive)
REMARK    1  A    between atoms: C_1  and  C_2
REMARK    2  A    between atoms: C_2  and  C_3
REMARK    3  A    between atoms: C_9  and  C_11
REMARK    4  A    between atoms: C_11  and  N_12
REMARK    5  A    between atoms: C_16  and  C_17
REMARK    6  A    between atoms: C_17  and  O_19
REMARK    7  A    between atoms: O_19  and  C_20
REMARK    8  A    between atoms: C_22  and  C_23
REMARK    9  A    between atoms: N_26  and  C_27
REMARK   10  A    between atoms: C_31  and  O_32
REMARK   11  A    between atoms: O_32  and  C_33
REMARK                            x       y       z     vdW  Elec       q    Type
REMARK                         _______ _______ _______ _____ _____    ______ ____
ROOT
ATOM      1  N   UNL     1      -0.427   0.508   0.857  0.00  0.00    -0.251 N 
ATOM      2  C   UNL     1       0.239  -0.656   0.807  0.00  0.00    +0.338 A 
ATOM      3  O   UNL     1      -0.345  -1.674   1.127  0.00  0.00    -0.246 OA
ATOM      4  N   UNL     1       1.520  -0.749   0.411  0.00  0.00    -0.246 N 
ATOM      5  C   UNL     1       2.229   0.380   0.036  0.00  0.00    +0.155 A 
ATOM      6  C   UNL     1       1.578   1.624   0.077  0.00  0.00    +0.096 A 
ATOM      7  C   UNL     1       2.277   2.783  -0.298  0.00  0.00    +0.077 A 
ATOM      8  C   UNL     1       3.607   2.636  -0.699  0.00  0.00    +0.039 A 
ATOM      9  C   UNL     1       4.175   1.372  -0.710  0.00  0.00    +0.041 A 
ATOM     10  C   UNL     1       5.610   1.215  -1.143  0.00  0.00    +0.065 C 
ATOM     11  N   UNL     1       3.492   0.303  -0.352  0.00  0.00    -0.233 NA
ATOM     12  C   UNL     1       0.172   1.670   0.514  0.00  0.00    +0.267 A 
ATOM     13  O   UNL     1      -0.432   2.723   0.566  0.00  0.00    -0.267 OA
ENDROOT
BRANCH   4  14
ATOM     14  C   UNL     1       2.146  -2.002   0.381  0.00  0.00    +0.056 A 
ATOM     15  C   UNL     1       1.448  -3.116  -0.061  0.00  0.00    +0.072 A 
ATOM     16  C   UNL     1       2.072  -4.353  -0.096  0.00  0.00    +0.122 A 
ATOM     17  C   UNL     1       3.390  -4.476   0.323  0.00  0.00    +0.046 A 
ATOM     18  C   UNL     1       4.082  -3.366   0.768  0.00  0.00    +0.006 A 
ATOM     19  C   UNL     1       3.464  -2.130   0.798  0.00  0.00    +0.026 A 
BRANCH  16  20
ATOM     20  O   UNL     1       1.393  -5.446  -0.533  0.00  0.00    -0.495 OA
ATOM     21  C   UNL     1       2.292  -6.554  -0.444  0.00  0.00    +0.277 C 
ENDBRANCH  16  20
ENDBRANCH   4  14
BRANCH   7  22
ATOM     22  C   UNL     1       1.628   4.114  -0.269  0.00  0.00    +0.340 C 
ATOM     23  O   UNL     1       0.572   4.287  -0.843  0.00  0.00    -0.245 OA
BRANCH  22  24
ATOM     24  O   UNL     1       2.209   5.132   0.394  0.00  0.00    -0.464 OA
ATOM     25  C   UNL     1       1.572   6.437   0.422  0.00  0.00    +0.280 C 
ENDBRANCH  22  24
ENDBRANCH   7  22
BRANCH   1  26
ATOM     26  C   UNL     1      -1.825   0.520   1.297  0.00  0.00    +0.225 C 
BRANCH  26  29
ATOM     27  C   UNL     1      -4.955   0.036  -0.866  0.00  0.00    +0.076 C 
ATOM     28  N   UNL     1      -4.065   0.327   0.267  0.00  0.00    -0.297 N 
ATOM     29  C   UNL     1      -2.728   0.346   0.103  0.00  0.00    +0.236 C 
ATOM     30  O   UNL     1      -2.251   0.224  -1.006  0.00  0.00    -0.274 OA
ATOM     31  C   UNL     1      -4.662   0.595   1.583  0.00  0.00    +0.108 C 
ATOM     32  C   UNL     1      -5.600  -0.561   1.944  0.00  0.00    +0.019 C 
ATOM     33  C   UNL     1      -6.619  -0.756   0.820  0.00  0.00    +0.003 C 
ATOM     34  C   UNL     1      -5.889  -1.114  -0.477  0.00  0.00    +0.022 C 
BRANCH  27  36
ATOM     35  C   UNL     1      -5.050  -0.728  -3.243  0.00  0.00    +0.006 C 
ATOM     36  C   UNL     1      -4.120  -0.370  -2.082  0.00  0.00    +0.019 C 
ENDBRANCH  27  36
ENDBRANCH  26  29
ENDBRANCH   1  26
TORSDOF 7
