REMARK  Name = m45
REMARK  7 active torsions:
REMARK  status: ('A' for Active; 'I' for Inactive)
REMARK    1  A    between atoms: C_2  and  C_3
REMARK    2  A    between atoms: C_3  and  O_4
REMARK    3  A    between atoms: O_4  and  C_5
REMARK    4  A    between atoms: C_8  and  C_9
REMARK    5  A    between atoms: C_25  and  C_26
REMARK    6  A    between atoms: C_30  and  O_31
REMARK    7  A    between atoms: O_31  and  C_32
REMARK                            x       y       z     vdW  Elec       q    Type
REMARK                         _______ _______ _______ _____ _____    ______ ____
ROOT
ATOM      1  C   UNL     1       1.202   2.218  -0.814  0.00  0.00    +0.063 C 
ATOM      2  C   UNL     1       0.021   2.063   0.108  0.00  0.00    +0.020 A 
ATOM      3  C   UNL     1      -0.233   2.659   1.335  0.00  0.00    +0.141 A 
ATOM      4  N   UNL     1      -1.392   2.224   1.773  0.00  0.00    -0.171 NA
ATOM      5  N   UNL     1      -1.918   1.328   0.827  0.00  0.00    -0.198 N 
ATOM      6  C   UNL     1      -3.137   0.650   0.922  0.00  0.00    +0.176 A 
ATOM      7  N   UNL     1      -3.505  -0.157  -0.044  0.00  0.00    -0.144 NA
ATOM      8  N   UNL     1      -4.716  -0.848   0.032  0.00  0.00    -0.195 N 
ATOM      9  C   UNL     1      -5.537  -0.678   1.120  0.00  0.00    +0.178 A 
ATOM     10  N   UNL     1      -6.600  -1.442   0.921  0.00  0.00    -0.128 NA
ATOM     11  N   UNL     1      -6.477  -2.055  -0.204  0.00  0.00    -0.132 NA
ATOM     12  C   UNL     1      -5.143   0.192   2.154  0.00  0.00    +0.054 A 
ATOM     13  C   UNL     1      -5.347  -1.724  -0.778  0.00  0.00    +0.152 A 
ATOM     14  C   UNL     1      -4.843  -2.230  -2.105  0.00  0.00    +0.090 C 
ATOM     15  C   UNL     1      -3.955   0.846   2.050  0.00  0.00    +0.054 A 
ATOM     16  C   UNL     1      -1.034   1.240  -0.189  0.00  0.00    +0.134 A 
ATOM     17  N   UNL     1      -1.074   0.493  -1.365  0.00  0.00    -0.270 N 
ATOM     18  H   UNL     1      -1.719  -0.222  -1.480  0.00  0.00    +0.156 HD
ATOM     19  C   UNL     1      -0.187   0.794  -2.338  0.00  0.00    +0.219 C 
ATOM     20  O   UNL     1      -0.128   0.080  -3.317  0.00  0.00    -0.275 OA
ATOM     21  C   UNL     1       0.727   1.982  -2.251  0.00  0.00    +0.109 C 
ENDROOT
BRANCH   1  25
ATOM     22  C   UNL     1       4.204  -0.655   0.200  0.00  0.00    +0.163 A 
ATOM     23  C   UNL     1       4.500   0.705   0.239  0.00  0.00    +0.162 A 
ATOM     24  C   UNL     1       3.527   1.632  -0.096  0.00  0.00    +0.053 A 
ATOM     25  C   UNL     1       2.262   1.207  -0.457  0.00  0.00    -0.036 A 
ATOM     26  C   UNL     1       1.966  -0.143  -0.490  0.00  0.00    +0.008 A 
ATOM     27  C   UNL     1       2.934  -1.074  -0.163  0.00  0.00    +0.050 A 
BRANCH  23  28
ATOM     28  O   UNL     1       5.745   1.121   0.594  0.00  0.00    -0.491 OA
ATOM     29  C   UNL     1       5.738   2.548   0.527  0.00  0.00    +0.277 C 
ENDBRANCH  23  28
BRANCH  22  30
ATOM     30  O   UNL     1       5.157  -1.569   0.522  0.00  0.00    -0.476 OA
BRANCH  30  31
ATOM     31  C   UNL     1       4.554  -2.858   0.394  0.00  0.00    +0.317 C 
BRANCH  31  33
ATOM     32  C   UNL     1       6.326  -4.727   1.000  0.00  0.00    +0.007 C 
ATOM     33  C   UNL     1       5.540  -3.898   0.731  0.00  0.00    -0.065 C 
ENDBRANCH  31  33
ENDBRANCH  30  31
ENDBRANCH  22  30
ENDBRANCH   1  25
TORSDOF 5
