REMARK  Name = m46
REMARK  9 active torsions:
REMARK  status: ('A' for Active; 'I' for Inactive)
REMARK    1  A    between atoms: C_1  and  C_2
REMARK    2  A    between atoms: C_2  and  C_3
REMARK    3  A    between atoms: C_3  and  C_4
REMARK    4  A    between atoms: C_4  and  O_5
REMARK    5  A    between atoms: O_5  and  C_6
REMARK    6  A    between atoms: C_9  and  C_10
REMARK    7  A    between atoms: C_26  and  C_27
REMARK    8  A    between atoms: C_31  and  O_32
REMARK    9  A    between atoms: O_32  and  C_33
REMARK                            x       y       z     vdW  Elec       q    Type
REMARK                         _______ _______ _______ _____ _____    ______ ____
ROOT
ATOM      1  C   UNL     1       0.723  -2.615   0.713  0.00  0.00    +0.063 C 
ATOM      2  C   UNL     1      -0.426  -2.285  -0.204  0.00  0.00    +0.020 A 
ATOM      3  C   UNL     1      -0.732  -2.787  -1.460  0.00  0.00    +0.141 A 
ATOM      4  N   UNL     1      -1.833  -2.207  -1.879  0.00  0.00    -0.171 NA
ATOM      5  N   UNL     1      -2.267  -1.309  -0.890  0.00  0.00    -0.198 N 
ATOM      6  C   UNL     1      -3.405  -0.498  -0.953  0.00  0.00    +0.176 A 
ATOM      7  N   UNL     1      -3.692   0.293   0.052  0.00  0.00    -0.144 NA
ATOM      8  N   UNL     1      -4.821   1.115   0.008  0.00  0.00    -0.195 N 
ATOM      9  C   UNL     1      -5.646   1.092  -1.091  0.00  0.00    +0.178 A 
ATOM     10  N   UNL     1      -6.621   1.955  -0.855  0.00  0.00    -0.128 NA
ATOM     11  N   UNL     1      -6.442   2.493   0.300  0.00  0.00    -0.132 NA
ATOM     12  C   UNL     1      -5.338   0.238  -2.166  0.00  0.00    +0.054 A 
ATOM     13  C   UNL     1      -5.360   2.012   0.861  0.00  0.00    +0.152 A 
ATOM     14  C   UNL     1      -4.815   2.391   2.214  0.00  0.00    +0.090 C 
ATOM     15  C   UNL     1      -4.229  -0.546  -2.093  0.00  0.00    +0.054 A 
ATOM     16  C   UNL     1      -1.389  -1.370   0.132  0.00  0.00    +0.134 A 
ATOM     17  N   UNL     1      -1.358  -0.684   1.345  0.00  0.00    -0.270 N 
ATOM     18  H   UNL     1      -1.922   0.090   1.496  0.00  0.00    +0.156 HD
ATOM     19  C   UNL     1      -0.518  -1.129   2.305  0.00  0.00    +0.219 C 
ATOM     20  O   UNL     1      -0.390  -0.477   3.319  0.00  0.00    -0.275 OA
ATOM     21  C   UNL     1       0.264  -2.403   2.159  0.00  0.00    +0.109 C 
ENDROOT
BRANCH   1  25
ATOM     22  C   UNL     1       4.027  -0.038  -0.140  0.00  0.00    +0.162 A 
ATOM     23  C   UNL     1       4.175  -1.417  -0.249  0.00  0.00    +0.162 A 
ATOM     24  C   UNL     1       3.103  -2.250   0.034  0.00  0.00    +0.053 A 
ATOM     25  C   UNL     1       1.889  -1.709   0.412  0.00  0.00    -0.036 A 
ATOM     26  C   UNL     1       1.741  -0.338   0.515  0.00  0.00    +0.008 A 
ATOM     27  C   UNL     1       2.807   0.498   0.240  0.00  0.00    +0.050 A 
BRANCH  23  28
ATOM     28  O   UNL     1       5.370  -1.948  -0.621  0.00  0.00    -0.491 OA
ATOM     29  C   UNL     1       5.208  -3.368  -0.628  0.00  0.00    +0.277 C 
ENDBRANCH  23  28
BRANCH  22  30
ATOM     30  O   UNL     1       5.077   0.783  -0.411  0.00  0.00    -0.488 OA
BRANCH  30  31
ATOM     31  C   UNL     1       4.615   2.121  -0.218  0.00  0.00    +0.229 C 
BRANCH  31  32
ATOM     32  C   UNL     1       5.755   3.101  -0.508  0.00  0.00    +0.041 C 
BRANCH  32  34
ATOM     33  C   UNL     1       6.399   5.513  -0.592  0.00  0.00    +0.004 C 
ATOM     34  C   UNL     1       5.260   4.534  -0.302  0.00  0.00    -0.000 C 
ENDBRANCH  32  34
ENDBRANCH  31  32
ENDBRANCH  30  31
ENDBRANCH  22  30
ENDBRANCH   1  25
TORSDOF 6
