REMARK  Name = m47
REMARK  9 active torsions:
REMARK  status: ('A' for Active; 'I' for Inactive)
REMARK    1  A    between atoms: C_1  and  C_2
REMARK    2  A    between atoms: C_2  and  C_3
REMARK    3  A    between atoms: C_3  and  O_4
REMARK    4  A    between atoms: O_4  and  C_5
REMARK    5  A    between atoms: C_8  and  C_9
REMARK    6  A    between atoms: C_25  and  C_26
REMARK    7  A    between atoms: C_30  and  O_31
REMARK    8  A    between atoms: O_31  and  C_32
REMARK    9  A    between atoms: C_32  and  C_33
REMARK                            x       y       z     vdW  Elec       q    Type
REMARK                         _______ _______ _______ _____ _____    ______ ____
ROOT
ATOM      1  C   UNL     1       1.056  -2.097   0.939  0.00  0.00    +0.063 C 
ATOM      2  C   UNL     1      -0.123  -2.034   0.002  0.00  0.00    +0.020 A 
ATOM      3  C   UNL     1      -0.338  -2.692  -1.200  0.00  0.00    +0.141 A 
ATOM      4  N   UNL     1      -1.511  -2.329  -1.665  0.00  0.00    -0.171 NA
ATOM      5  N   UNL     1      -2.085  -1.418  -0.763  0.00  0.00    -0.198 N 
ATOM      6  C   UNL     1      -3.332  -0.800  -0.896  0.00  0.00    +0.176 A 
ATOM      7  N   UNL     1      -3.745   0.030   0.032  0.00  0.00    -0.144 NA
ATOM      8  N   UNL     1      -4.984   0.662  -0.084  0.00  0.00    -0.195 N 
ATOM      9  C   UNL     1      -5.787   0.410  -1.170  0.00  0.00    +0.178 A 
ATOM     10  N   UNL     1      -6.884   1.133  -1.012  0.00  0.00    -0.128 NA
ATOM     11  N   UNL     1      -6.799   1.799   0.087  0.00  0.00    -0.132 NA
ATOM     12  C   UNL     1      -5.344  -0.485  -2.162  0.00  0.00    +0.054 A 
ATOM     13  C   UNL     1      -5.661   1.544   0.684  0.00  0.00    +0.152 A 
ATOM     14  C   UNL     1      -5.192   2.127   1.991  0.00  0.00    +0.090 C 
ATOM     15  C   UNL     1      -4.129  -1.080  -2.021  0.00  0.00    +0.054 A 
ATOM     16  C   UNL     1      -1.216  -1.248   0.255  0.00  0.00    +0.134 A 
ATOM     17  N   UNL     1      -1.300  -0.454   1.398  0.00  0.00    -0.270 N 
ATOM     18  H   UNL     1      -1.977   0.236   1.478  0.00  0.00    +0.156 HD
ATOM     19  C   UNL     1      -0.410  -0.673   2.390  0.00  0.00    +0.219 C 
ATOM     20  O   UNL     1      -0.392   0.084   3.337  0.00  0.00    -0.275 OA
ATOM     21  C   UNL     1       0.557  -1.821   2.361  0.00  0.00    +0.109 C 
ENDROOT
BRANCH   1  25
ATOM     22  C   UNL     1       3.937   0.861  -0.174  0.00  0.00    +0.162 A 
ATOM     23  C   UNL     1       4.293  -0.484  -0.153  0.00  0.00    +0.162 A 
ATOM     24  C   UNL     1       3.359  -1.439   0.214  0.00  0.00    +0.053 A 
ATOM     25  C   UNL     1       2.073  -1.056   0.547  0.00  0.00    -0.036 A 
ATOM     26  C   UNL     1       1.717   0.280   0.520  0.00  0.00    +0.008 A 
ATOM     27  C   UNL     1       2.646   1.238   0.161  0.00  0.00    +0.050 A 
BRANCH  22  28
ATOM     28  O   UNL     1       4.852   1.803  -0.528  0.00  0.00    -0.488 OA
BRANCH  28  29
ATOM     29  C   UNL     1       4.190   3.068  -0.460  0.00  0.00    +0.229 C 
BRANCH  29  31
ATOM     30  C   UNL     1       4.461   5.531  -0.776  0.00  0.00    +0.007 C 
ATOM     31  C   UNL     1       5.170   4.177  -0.849  0.00  0.00    +0.038 C 
ENDBRANCH  29  31
ENDBRANCH  28  29
ENDBRANCH  22  28
BRANCH  23  32
ATOM     32  O   UNL     1       5.559  -0.859  -0.480  0.00  0.00    -0.489 OA
BRANCH  32  33
ATOM     33  C   UNL     1       5.614  -2.281  -0.352  0.00  0.00    +0.226 C 
ATOM     34  C   UNL     1       7.019  -2.771  -0.708  0.00  0.00    +0.048 C 
ENDBRANCH  32  33
ENDBRANCH  23  32
ENDBRANCH   1  25
TORSDOF 6
