REMARK  Name = m48
REMARK  7 active torsions:
REMARK  status: ('A' for Active; 'I' for Inactive)
REMARK    1  A    between atoms: C_1  and  C_2
REMARK    2  A    between atoms: C_4  and  C_5
REMARK    3  A    between atoms: C_10  and  C_11
REMARK    4  A    between atoms: C_13  and  C_14
REMARK    5  A    between atoms: N_18  and  C_19
REMARK    6  A    between atoms: C_19  and  C_20
REMARK    7  A    between atoms: C_28  and  C_29
REMARK                            x       y       z     vdW  Elec       q    Type
REMARK                         _______ _______ _______ _____ _____    ______ ____
ROOT
ATOM      1  C   UNL     1      -2.915  -0.288  -0.921  0.00  0.00    +0.247 C 
ATOM      2  N   UNL     1      -1.741  -0.413  -0.271  0.00  0.00    -0.297 N 
ATOM      3  C   UNL     1      -0.412  -0.491  -0.904  0.00  0.00    +0.119 C 
ATOM      4  C   UNL     1       0.575  -0.005   0.189  0.00  0.00    +0.076 C 
ATOM      5  C   UNL     1      -0.061  -0.608   1.469  0.00  0.00    +0.032 C 
ATOM      6  C   UNL     1      -1.575  -0.501   1.187  0.00  0.00    +0.109 C 
ATOM      7  O   UNL     1      -2.929  -0.131  -2.126  0.00  0.00    -0.270 OA
ENDROOT
BRANCH   1  16
ATOM      8  C   UNL     1      -5.897  -2.446   2.460  0.00  0.00    +0.066 C 
ATOM      9  C   UNL     1      -5.636  -1.359   1.450  0.00  0.00    +0.043 A 
ATOM     10  N   UNL     1      -6.561  -0.448   1.236  0.00  0.00    -0.215 NA
ATOM     11  C   UNL     1      -6.388   0.536   0.366  0.00  0.00    +0.259 A 
ATOM     12  C   UNL     1      -5.195   0.624  -0.370  0.00  0.00    +0.076 A 
ATOM     13  C   UNL     1      -5.319   1.797  -1.234  0.00  0.00    +0.091 A 
ATOM     14  N   UNL     1      -6.483   2.325  -1.004  0.00  0.00    -0.080 NA
ATOM     15  C   UNL     1      -4.288   2.301  -2.211  0.00  0.00    +0.070 C 
ATOM     16  C   UNL     1      -4.188  -0.341  -0.167  0.00  0.00    +0.053 A 
ATOM     17  O   UNL     1      -7.164   1.569  -0.022  0.00  0.00    -0.334 OA
ATOM     18  C   UNL     1      -4.430  -1.347   0.767  0.00  0.00    +0.037 A 
ENDBRANCH   1  16
BRANCH   4  19
ATOM     19  C   UNL     1       1.954  -0.565  -0.044  0.00  0.00    +0.136 A 
ATOM     20  N   UNL     1       2.978   0.263  -0.080  0.00  0.00    -0.216 NA
ATOM     21  C   UNL     1       4.215  -0.193  -0.279  0.00  0.00    +0.135 A 
ATOM     22  N   UNL     1       5.435   0.456  -0.354  0.00  0.00    -0.255 N 
ATOM     23  C   UNL     1       6.454  -0.392  -0.577  0.00  0.00    +0.225 C 
ATOM     24  C   UNL     1       5.864  -1.784  -0.665  0.00  0.00    +0.136 C 
ATOM     25  O   UNL     1       7.625  -0.097  -0.686  0.00  0.00    -0.275 OA
ATOM     26  C   UNL     1       4.386  -1.565  -0.459  0.00  0.00    +0.023 A 
ATOM     27  C   UNL     1       3.292  -2.396  -0.420  0.00  0.00    +0.047 A 
ATOM     28  C   UNL     1       3.450  -3.882  -0.611  0.00  0.00    +0.066 C 
ATOM     29  N   UNL     1       2.093  -1.865  -0.211  0.00  0.00    -0.236 NA
BRANCH  22  30
ATOM     30  C   UNL     1       5.598   1.905  -0.207  0.00  0.00    +0.118 C 
BRANCH  30  31
ATOM     31  C   UNL     1       5.828   2.245   1.267  0.00  0.00    +0.007 C 
ATOM     32  C   UNL     1       4.774   3.105   1.967  0.00  0.00    +0.005 C 
ATOM     33  C   UNL     1       6.139   3.702   1.615  0.00  0.00    +0.005 C 
ENDBRANCH  30  31
ENDBRANCH  22  30
ENDBRANCH   4  19
TORSDOF 4
