REMARK  Name = m49
REMARK  9 active torsions:
REMARK  status: ('A' for Active; 'I' for Inactive)
REMARK    1  A    between atoms: C_1  and  O_2
REMARK    2  A    between atoms: O_2  and  C_3
REMARK    3  A    between atoms: C_8  and  N_9
REMARK    4  A    between atoms: C_10  and  C_12
REMARK    5  A    between atoms: C_12  and  N_13
REMARK    6  A    between atoms: C_18  and  C_19
REMARK    7  A    between atoms: C_21  and  C_22
REMARK    8  A    between atoms: C_26  and  C_27
REMARK    9  A    between atoms: C_31  and  C_32
REMARK                            x       y       z     vdW  Elec       q    Type
REMARK                         _______ _______ _______ _____ _____    ______ ____
ROOT
ATOM      1  N   UNL     1       2.434  -1.657   0.584  0.00  0.00    -0.290 N 
ATOM      2  C   UNL     1       1.450  -0.859   1.043  0.00  0.00    +0.263 A 
ATOM      3  O   UNL     1       1.674  -0.018   1.895  0.00  0.00    -0.267 OA
ATOM      4  C   UNL     1       0.091  -1.027   0.481  0.00  0.00    +0.076 A 
ATOM      5  C   UNL     1      -0.031  -2.042  -0.494  0.00  0.00    +0.116 A 
ATOM      6  S   UNL     1      -1.748  -1.977  -0.938  0.00  0.00    -0.063 S 
ATOM      7  C   UNL     1      -2.245  -0.649   0.146  0.00  0.00    +0.082 A 
ATOM      8  N   UNL     1       1.007  -2.778  -0.872  0.00  0.00    -0.230 NA
ATOM      9  C   UNL     1      -1.083  -0.329   0.783  0.00  0.00    -0.017 A 
ATOM     10  C   UNL     1      -1.063   0.774   1.810  0.00  0.00    +0.046 C 
ATOM     11  C   UNL     1       2.194  -2.601  -0.360  0.00  0.00    +0.203 A 
ENDROOT
BRANCH   7  12
ATOM     12  C   UNL     1      -3.575  -0.050   0.312  0.00  0.00    +0.266 A 
ATOM     13  O   UNL     1      -3.906   0.949   1.148  0.00  0.00    -0.332 OA
ATOM     14  N   UNL     1      -5.085   1.208   1.035  0.00  0.00    -0.056 NA
ATOM     15  C   UNL     1      -5.642   0.425   0.145  0.00  0.00    +0.202 A 
ATOM     16  N   UNL     1      -4.681  -0.393  -0.330  0.00  0.00    -0.187 NA
BRANCH  15  17
ATOM     17  C   UNL     1      -7.069   0.434  -0.263  0.00  0.00    +0.023 A 
ATOM     18  C   UNL     1      -7.957   1.335   0.319  0.00  0.00    +0.015 A 
ATOM     19  C   UNL     1      -9.281   1.344  -0.068  0.00  0.00    -0.050 A 
ATOM     20  C   UNL     1     -10.242   2.322   0.557  0.00  0.00    +0.044 C 
ATOM     21  C   UNL     1      -9.730   0.452  -1.026  0.00  0.00    +0.003 A 
ATOM     22  C   UNL     1      -8.853  -0.449  -1.603  0.00  0.00    +0.001 A 
ATOM     23  C   UNL     1      -7.526  -0.462  -1.227  0.00  0.00    +0.012 A 
ENDBRANCH  15  17
ENDBRANCH   7  12
BRANCH   1  24
ATOM     24  C   UNL     1       3.789  -1.507   1.121  0.00  0.00    +0.222 C 
BRANCH  24  27
ATOM     25  N   UNL     1       5.829  -0.212   0.594  0.00  0.00    -0.281 N 
ATOM     26  H   UNL     1       6.284  -0.697   1.299  0.00  0.00    +0.155 HD
ATOM     27  C   UNL     1       4.552  -0.511   0.285  0.00  0.00    +0.237 C 
ATOM     28  O   UNL     1       4.017   0.020  -0.665  0.00  0.00    -0.274 OA
BRANCH  25  30
ATOM     29  C   UNL     1       7.891   0.796  -0.177  0.00  0.00    +0.141 A 
ATOM     30  C   UNL     1       6.500   0.801  -0.106  0.00  0.00    +0.076 A 
ATOM     31  C   UNL     1       5.780   1.816  -0.720  0.00  0.00    +0.027 A 
ATOM     32  C   UNL     1       6.444   2.813  -1.409  0.00  0.00    +0.002 A 
ATOM     33  C   UNL     1       7.825   2.805  -1.484  0.00  0.00    +0.004 A 
ATOM     34  C   UNL     1       8.548   1.800  -0.871  0.00  0.00    +0.047 A 
BRANCH  29  36
ATOM     35  C   UNL     1       9.982   0.074   0.171  0.00  0.00    +0.277 C 
ATOM     36  O   UNL     1       8.601  -0.193   0.426  0.00  0.00    -0.493 OA
ENDBRANCH  29  36
ENDBRANCH  25  30
ENDBRANCH  24  27
ENDBRANCH   1  24
TORSDOF 6
