REMARK  Name = m50
REMARK  8 active torsions:
REMARK  status: ('A' for Active; 'I' for Inactive)
REMARK    1  A    between atoms: C_1  and  C_2
REMARK    2  A    between atoms: C_2  and  C_3
REMARK    3  A    between atoms: C_3  and  O_4
REMARK    4  A    between atoms: O_4  and  C_5
REMARK    5  A    between atoms: C_8  and  C_9
REMARK    6  A    between atoms: C_25  and  C_26
REMARK    7  A    between atoms: C_30  and  O_31
REMARK    8  A    between atoms: O_31  and  C_32
REMARK                            x       y       z     vdW  Elec       q    Type
REMARK                         _______ _______ _______ _____ _____    ______ ____
ROOT
ATOM      1  C   UNL     1       1.176  -2.286   0.820  0.00  0.00    +0.063 C 
ATOM      2  C   UNL     1      -0.009  -2.125  -0.098  0.00  0.00    +0.020 A 
ATOM      3  C   UNL     1      -0.274  -2.727  -1.320  0.00  0.00    +0.141 A 
ATOM      4  N   UNL     1      -1.430  -2.285  -1.755  0.00  0.00    -0.171 NA
ATOM      5  N   UNL     1      -1.943  -1.377  -0.814  0.00  0.00    -0.198 N 
ATOM      6  C   UNL     1      -3.156  -0.688  -0.908  0.00  0.00    +0.176 A 
ATOM      7  N   UNL     1      -3.512   0.129   0.054  0.00  0.00    -0.144 NA
ATOM      8  N   UNL     1      -4.717   0.832  -0.022  0.00  0.00    -0.195 N 
ATOM      9  C   UNL     1      -5.544   0.663  -1.105  0.00  0.00    +0.178 A 
ATOM     10  N   UNL     1      -6.598   1.438  -0.906  0.00  0.00    -0.128 NA
ATOM     11  N   UNL     1      -6.464   2.058   0.214  0.00  0.00    -0.132 NA
ATOM     12  C   UNL     1      -5.163  -0.219  -2.134  0.00  0.00    +0.054 A 
ATOM     13  C   UNL     1      -5.335   1.720   0.786  0.00  0.00    +0.152 A 
ATOM     14  C   UNL     1      -4.820   2.230   2.107  0.00  0.00    +0.090 C 
ATOM     15  C   UNL     1      -3.981  -0.883  -2.031  0.00  0.00    +0.054 A 
ATOM     16  C   UNL     1      -1.054  -1.291   0.197  0.00  0.00    +0.134 A 
ATOM     17  N   UNL     1      -1.081  -0.535   1.368  0.00  0.00    -0.270 N 
ATOM     18  H   UNL     1      -1.719   0.187   1.482  0.00  0.00    +0.156 HD
ATOM     19  C   UNL     1      -0.193  -0.838   2.340  0.00  0.00    +0.219 C 
ATOM     20  O   UNL     1      -0.122  -0.118   3.313  0.00  0.00    -0.275 OA
ATOM     21  C   UNL     1       0.709  -2.035   2.257  0.00  0.00    +0.109 C 
ENDROOT
BRANCH   1  25
ATOM     22  C   UNL     1       4.200   0.550  -0.228  0.00  0.00    +0.162 A 
ATOM     23  C   UNL     1       4.483  -0.812  -0.259  0.00  0.00    +0.162 A 
ATOM     24  C   UNL     1       3.502  -1.728   0.087  0.00  0.00    +0.053 A 
ATOM     25  C   UNL     1       2.243  -1.288   0.450  0.00  0.00    -0.036 A 
ATOM     26  C   UNL     1       1.961   0.065   0.476  0.00  0.00    +0.008 A 
ATOM     27  C   UNL     1       2.936   0.984   0.138  0.00  0.00    +0.050 A 
BRANCH  23  28
ATOM     28  O   UNL     1       5.722  -1.243  -0.617  0.00  0.00    -0.491 OA
ATOM     29  C   UNL     1       5.701  -2.670  -0.540  0.00  0.00    +0.277 C 
ENDBRANCH  23  28
BRANCH  22  30
ATOM     30  O   UNL     1       5.161   1.453  -0.561  0.00  0.00    -0.488 OA
BRANCH  30  31
ATOM     31  C   UNL     1       4.571   2.749  -0.439  0.00  0.00    +0.229 C 
BRANCH  31  33
ATOM     32  C   UNL     1       4.972   5.204  -0.670  0.00  0.00    +0.007 C 
ATOM     33  C   UNL     1       5.604   3.817  -0.801  0.00  0.00    +0.038 C 
ENDBRANCH  31  33
ENDBRANCH  30  31
ENDBRANCH  22  30
ENDBRANCH   1  25
TORSDOF 5
