REMARK  Name = m51
REMARK  4 active torsions:
REMARK  status: ('A' for Active; 'I' for Inactive)
REMARK    1  A    between atoms: C_2  and  C_3
REMARK    2  A    between atoms: C_3  and  N_4
REMARK    3  A    between atoms: C_11  and  C_12
REMARK    4  A    between atoms: N_23  and  C_24
REMARK                            x       y       z     vdW  Elec       q    Type
REMARK                         _______ _______ _______ _____ _____    ______ ____
ROOT
ATOM      1  N   UNL     1       0.657  -1.644  -0.782  0.00  0.00    -0.305 N 
ATOM      2  C   UNL     1       1.679  -0.795  -0.426  0.00  0.00    +0.238 A 
ATOM      3  N   UNL     1       2.680  -1.238   0.384  0.00  0.00    -0.160 N 
ATOM      4  N   UNL     1       3.552  -0.157   0.570  0.00  0.00    -0.140 NA
ATOM      5  C   UNL     1       3.054   0.855  -0.107  0.00  0.00    +0.184 A 
ATOM      6  C   UNL     1       2.681  -2.506   0.830  0.00  0.00    +0.279 A 
ATOM      7  O   UNL     1       3.581  -2.898   1.552  0.00  0.00    -0.265 OA
ATOM      8  C   UNL     1       1.638  -3.384   0.459  0.00  0.00    +0.038 A 
ATOM      9  C   UNL     1       1.410  -4.837   0.817  0.00  0.00    +0.043 C 
ATOM     10  C   UNL     1       0.381  -5.347  -0.214  0.00  0.00    +0.011 C 
ATOM     11  C   UNL     1      -0.354  -4.046  -0.602  0.00  0.00    +0.054 C 
ATOM     12  N   UNL     1       1.919   0.468  -0.705  0.00  0.00    -0.190 NA
ATOM     13  C   UNL     1       0.644  -2.938  -0.341  0.00  0.00    +0.031 A 
ENDROOT
BRANCH   5  14
ATOM     14  C   UNL     1       3.652   2.210  -0.194  0.00  0.00    +0.021 A 
ATOM     15  C   UNL     1       3.031   3.202  -0.950  0.00  0.00    +0.011 A 
ATOM     16  C   UNL     1       3.590   4.462  -1.023  0.00  0.00    +0.001 A 
ATOM     17  C   UNL     1       4.770   4.738  -0.356  0.00  0.00    +0.000 A 
ATOM     18  C   UNL     1       5.394   3.756   0.392  0.00  0.00    +0.001 A 
ATOM     19  C   UNL     1       4.841   2.494   0.476  0.00  0.00    +0.011 A 
ENDBRANCH   5  14
BRANCH   1  20
ATOM     20  C   UNL     1      -0.421  -1.161  -1.647  0.00  0.00    +0.221 C 
BRANCH  20  22
ATOM     21  O   UNL     1      -1.431  -0.597   0.410  0.00  0.00    -0.274 OA
ATOM     22  C   UNL     1      -1.531  -0.596  -0.798  0.00  0.00    +0.237 C 
ATOM     23  N   UNL     1      -2.638  -0.094  -1.382  0.00  0.00    -0.284 N 
ATOM     24  H   UNL     1      -2.754  -0.166  -2.342  0.00  0.00    +0.155 HD
BRANCH  23  25
ATOM     25  C   UNL     1      -3.618   0.530  -0.603  0.00  0.00    +0.039 A 
ATOM     26  C   UNL     1      -4.961   0.367  -0.913  0.00  0.00    +0.061 A 
ATOM     27  C   UNL     1      -5.929   0.981  -0.139  0.00  0.00    +0.128 A 
ATOM     28  F   UNL     1      -7.236   0.818  -0.438  0.00  0.00    -0.205 F 
ATOM     29  C   UNL     1      -5.558   1.766   0.940  0.00  0.00    +0.076 A 
ATOM     30  C   UNL     1      -4.219   1.934   1.249  0.00  0.00    +0.128 A 
ATOM     31  F   UNL     1      -3.860   2.701   2.301  0.00  0.00    -0.205 F 
ATOM     32  C   UNL     1      -3.248   1.317   0.479  0.00  0.00    +0.061 A 
ENDBRANCH  23  25
ENDBRANCH  20  22
ENDBRANCH   1  20
TORSDOF 4
