REMARK  Name = m52
REMARK  9 active torsions:
REMARK  status: ('A' for Active; 'I' for Inactive)
REMARK    1  A    between atoms: C_1  and  C_2
REMARK    2  A    between atoms: C_2  and  S_3
REMARK    3  A    between atoms: S_3  and  C_4
REMARK    4  A    between atoms: C_7  and  C_8
REMARK    5  A    between atoms: N_10  and  C_11
REMARK    6  A    between atoms: N_15  and  S_16
REMARK    7  A    between atoms: S_16  and  C_19
REMARK    8  A    between atoms: N_28  and  C_29
REMARK    9  A    between atoms: C_29  and  C_30
REMARK                            x       y       z     vdW  Elec       q    Type
REMARK                         _______ _______ _______ _____ _____    ______ ____
ROOT
ATOM      1  C   UNL     1       1.149  -1.377   0.309  0.00  0.00    +0.134 A 
ATOM      2  C   UNL     1      -0.128  -1.061   0.800  0.00  0.00    +0.020 A 
ATOM      3  C   UNL     1      -0.577   0.217   1.466  0.00  0.00    +0.148 C 
ATOM      4  N   UNL     1      -2.049   0.175   1.544  0.00  0.00    -0.172 NA
ATOM      5  C   UNL     1      -2.690  -1.076   1.976  0.00  0.00    +0.116 C 
ATOM      6  C   UNL     1      -2.400  -2.174   0.947  0.00  0.00    +0.072 C 
ATOM      7  C   UNL     1      -0.939  -2.123   0.575  0.00  0.00    +0.045 A 
ATOM      8  N   UNL     1      -0.209  -3.083  -0.022  0.00  0.00    -0.270 N 
ATOM      9  C   UNL     1      -0.695  -4.403  -0.431  0.00  0.00    +0.172 C 
ATOM     10  N   UNL     1       1.098  -2.600  -0.184  0.00  0.00    -0.168 NA
ENDROOT
BRANCH   1  13
ATOM     11  C   UNL     1       4.358   0.302   0.115  0.00  0.00    +0.192 A 
ATOM     12  N   UNL     1       3.592  -0.801  -0.136  0.00  0.00    -0.301 N 
ATOM     13  C   UNL     1       2.338  -0.498   0.343  0.00  0.00    +0.185 A 
ATOM     14  N   UNL     1       2.395   0.719   0.832  0.00  0.00    -0.127 NA
ATOM     15  N   UNL     1       3.583   1.190   0.698  0.00  0.00    -0.122 NA
BRANCH  12  16
ATOM     16  C   UNL     1       4.018  -2.048  -0.774  0.00  0.00    +0.122 C 
ATOM     17  C   UNL     1       3.803  -1.948  -2.285  0.00  0.00    +0.027 C 
ENDBRANCH  12  16
BRANCH  11  18
ATOM     18  S   UNL     1       6.064   0.501  -0.276  0.00  0.00    -0.086 S 
BRANCH  18  20
ATOM     19  C   UNL     1       7.793   2.581   0.106  0.00  0.00    +0.016 C 
ATOM     20  C   UNL     1       6.336   2.179   0.344  0.00  0.00    +0.074 C 
ENDBRANCH  18  20
ENDBRANCH  11  18
ENDBRANCH   1  13
BRANCH   4  21
ATOM     21  S   UNL     1      -2.958   1.504   1.156  0.00  0.00    +0.063 S 
ATOM     22  O   UNL     1      -2.131   2.628   1.424  0.00  0.00    -0.153 OA
ATOM     23  O   UNL     1      -4.241   1.273   1.721  0.00  0.00    -0.153 OA
BRANCH  21  24
ATOM     24  C   UNL     1      -3.194   1.488  -0.590  0.00  0.00    +0.124 A 
ATOM     25  C   UNL     1      -3.999   0.525  -1.171  0.00  0.00    +0.067 A 
ATOM     26 CL   UNL     1      -4.782  -0.665  -0.179  0.00  0.00    -0.082 Cl
ATOM     27  C   UNL     1      -4.189   0.517  -2.542  0.00  0.00    +0.022 A 
ATOM     28  C   UNL     1      -3.565   1.465  -3.331  0.00  0.00    +0.002 A 
ATOM     29  C   UNL     1      -2.755   2.423  -2.750  0.00  0.00    +0.002 A 
ATOM     30  C   UNL     1      -2.570   2.435  -1.381  0.00  0.00    +0.030 A 
ENDBRANCH  21  24
ENDBRANCH   4  21
TORSDOF 6
