REMARK  Name = m53
REMARK  7 active torsions:
REMARK  status: ('A' for Active; 'I' for Inactive)
REMARK    1  A    between atoms: C_1  and  C_2
REMARK    2  A    between atoms: C_2  and  C_3
REMARK    3  A    between atoms: C_6  and  C_7
REMARK    4  A    between atoms: C_7  and  N_8
REMARK    5  A    between atoms: N_18  and  C_19
REMARK    6  A    between atoms: C_19  and  C_20
REMARK    7  A    between atoms: C_29  and  C_30
REMARK                            x       y       z     vdW  Elec       q    Type
REMARK                         _______ _______ _______ _____ _____    ______ ____
ROOT
ATOM      1  N   UNL     1      -2.647  -0.261  -1.539  0.00  0.00    -0.288 N 
ATOM      2  C   UNL     1      -1.609  -0.091  -0.691  0.00  0.00    +0.279 A 
ATOM      3  O   UNL     1      -1.201   1.026  -0.420  0.00  0.00    -0.265 OA
ATOM      4  C   UNL     1      -1.011  -1.239  -0.120  0.00  0.00    +0.134 A 
ATOM      5  C   UNL     1      -1.516  -2.489  -0.470  0.00  0.00    +0.103 A 
ATOM      6  C   UNL     1      -0.712  -3.481   0.256  0.00  0.00    +0.026 A 
ATOM      7  C   UNL     1       0.234  -2.758   1.003  0.00  0.00    +0.052 A 
ATOM      8  C   UNL     1       1.144  -3.449   1.801  0.00  0.00    +0.026 A 
ATOM      9  C   UNL     1       1.107  -4.824   1.848  0.00  0.00    +0.002 A 
ATOM     10  C   UNL     1       0.171  -5.533   1.108  0.00  0.00    +0.001 A 
ATOM     11  C   UNL     1      -0.730  -4.875   0.320  0.00  0.00    +0.012 A 
ATOM     12  N   UNL     1      -2.550  -2.575  -1.327  0.00  0.00    -0.235 NA
ATOM     13  N   UNL     1       0.037  -1.415   0.763  0.00  0.00    -0.325 N 
ATOM     14  C   UNL     1      -3.092  -1.507  -1.839  0.00  0.00    +0.203 A 
ENDROOT
BRANCH   1  15
ATOM     15  C   UNL     1      -3.292   0.907  -2.143  0.00  0.00    +0.225 C 
BRANCH  15  18
ATOM     16  C   UNL     1      -5.589   2.339   0.216  0.00  0.00    +0.172 A 
ATOM     17  N   UNL     1      -4.345   2.246  -0.287  0.00  0.00    -0.195 NA
ATOM     18  C   UNL     1      -4.422   1.370  -1.259  0.00  0.00    +0.247 A 
ATOM     19  O   UNL     1      -5.695   0.968  -1.321  0.00  0.00    -0.336 OA
ATOM     20  N   UNL     1      -6.346   1.535  -0.468  0.00  0.00    -0.061 NA
BRANCH  16  22
ATOM     21  C   UNL     1      -5.882   2.453   2.676  0.00  0.00    +0.012 C 
ATOM     22  C   UNL     1      -6.025   3.219   1.359  0.00  0.00    +0.076 C 
ENDBRANCH  16  22
ENDBRANCH  15  18
ENDBRANCH   1  15
BRANCH  13  23
ATOM     23  C   UNL     1       0.824  -0.332   1.357  0.00  0.00    +0.218 C 
BRANCH  23  24
ATOM     24  C   UNL     1       2.003  -0.022   0.471  0.00  0.00    +0.240 C 
ATOM     25  N   UNL     1       2.872   0.947   0.820  0.00  0.00    -0.264 N 
ATOM     26  C   UNL     1       4.059   1.175   0.097  0.00  0.00    +0.079 A 
ATOM     27  C   UNL     1       4.846   2.285   0.382  0.00  0.00    +0.142 A 
ATOM     28  C   UNL     1       5.996   2.507  -0.371  0.00  0.00    +0.048 A 
ATOM     29  C   UNL     1       6.347   1.635  -1.382  0.00  0.00    +0.007 A 
ATOM     30  C   UNL     1       5.561   0.531  -1.658  0.00  0.00    -0.048 A 
ATOM     31  C   UNL     1       5.952  -0.419  -2.759  0.00  0.00    +0.044 C 
ATOM     32  O   UNL     1       4.550   3.163   1.370  0.00  0.00    -0.489 OA
ATOM     33  C   UNL     1       3.146   3.216   1.587  0.00  0.00    +0.248 C 
ATOM     34  C   UNL     1       4.415   0.303  -0.919  0.00  0.00    +0.030 A 
ATOM     35  C   UNL     1       2.636   1.823   1.984  0.00  0.00    +0.155 C 
ATOM     36  O   UNL     1       2.169  -0.645  -0.556  0.00  0.00    -0.273 OA
ENDBRANCH  23  24
ENDBRANCH  13  23
TORSDOF 5
