REMARK  Name = m54
REMARK  8 active torsions:
REMARK  status: ('A' for Active; 'I' for Inactive)
REMARK    1  A    between atoms: C_1  and  C_2
REMARK    2  A    between atoms: C_2  and  O_3
REMARK    3  A    between atoms: O_3  and  C_4
REMARK    4  A    between atoms: C_7  and  C_8
REMARK    5  A    between atoms: C_24  and  C_25
REMARK    6  A    between atoms: C_29  and  O_30
REMARK    7  A    between atoms: O_30  and  C_31
REMARK    8  A    between atoms: C_31  and  C_32
REMARK                            x       y       z     vdW  Elec       q    Type
REMARK                         _______ _______ _______ _____ _____    ______ ____
ROOT
ATOM      1  C   UNL     1      -1.316  -1.729  -1.104  0.00  0.00    +0.063 C 
ATOM      2  C   UNL     1      -0.129  -1.839  -0.181  0.00  0.00    +0.020 A 
ATOM      3  C   UNL     1       0.055  -2.638   0.938  0.00  0.00    +0.141 A 
ATOM      4  N   UNL     1       1.250  -2.397   1.424  0.00  0.00    -0.171 NA
ATOM      5  N   UNL     1       1.871  -1.426   0.621  0.00  0.00    -0.198 N 
ATOM      6  C   UNL     1       3.153  -0.900   0.805  0.00  0.00    +0.176 A 
ATOM      7  N   UNL     1       3.608   0.002  -0.032  0.00  0.00    -0.144 NA
ATOM      8  N   UNL     1       4.884   0.545   0.137  0.00  0.00    -0.195 N 
ATOM      9  C   UNL     1       5.677   0.128   1.178  0.00  0.00    +0.178 A 
ATOM     10  N   UNL     1       6.814   0.799   1.086  0.00  0.00    -0.128 NA
ATOM     11  N   UNL     1       6.761   1.586   0.069  0.00  0.00    -0.132 NA
ATOM     12  C   UNL     1       5.189  -0.845   2.071  0.00  0.00    +0.054 A 
ATOM     13  C   UNL     1       5.606   1.465  -0.538  0.00  0.00    +0.152 A 
ATOM     14  C   UNL     1       5.164   2.217  -1.767  0.00  0.00    +0.090 C 
ATOM     15  C   UNL     1       3.940  -1.349   1.881  0.00  0.00    +0.054 A 
ATOM     16  C   UNL     1       1.006  -1.094  -0.361  0.00  0.00    +0.134 A 
ATOM     17  N   UNL     1       1.130  -0.184  -1.410  0.00  0.00    -0.270 N 
ATOM     18  H   UNL     1       1.846   0.470  -1.422  0.00  0.00    +0.156 HD
ATOM     19  C   UNL     1       0.222  -0.240  -2.408  0.00  0.00    +0.219 C 
ATOM     20  O   UNL     1       0.242   0.617  -3.266  0.00  0.00    -0.275 OA
ATOM     21  C   UNL     1      -0.811  -1.326  -2.493  0.00  0.00    +0.109 C 
ENDROOT
BRANCH   1  25
ATOM     22  C   UNL     1      -4.009   1.250   0.367  0.00  0.00    +0.162 A 
ATOM     23  C   UNL     1      -4.445  -0.062   0.202  0.00  0.00    +0.162 A 
ATOM     24  C   UNL     1      -3.571  -1.023  -0.280  0.00  0.00    +0.053 A 
ATOM     25  C   UNL     1      -2.267  -0.681  -0.586  0.00  0.00    -0.036 A 
ATOM     26  C   UNL     1      -1.833   0.621  -0.416  0.00  0.00    +0.008 A 
ATOM     27  C   UNL     1      -2.701   1.586   0.059  0.00  0.00    +0.050 A 
BRANCH  22  28
ATOM     28  O   UNL     1      -4.865   2.198   0.835  0.00  0.00    -0.489 OA
BRANCH  28  30
ATOM     29  C   UNL     1      -5.039   4.536   1.420  0.00  0.00    +0.048 C 
ATOM     30  C   UNL     1      -4.130   3.422   0.898  0.00  0.00    +0.226 C 
ENDBRANCH  28  30
ENDBRANCH  22  28
BRANCH  23  31
ATOM     31  O   UNL     1      -5.728  -0.397   0.503  0.00  0.00    -0.489 OA
BRANCH  31  32
ATOM     32  C   UNL     1      -5.868  -1.791   0.219  0.00  0.00    +0.226 C 
ATOM     33  C   UNL     1      -7.297  -2.234   0.538  0.00  0.00    +0.048 C 
ENDBRANCH  31  32
ENDBRANCH  23  31
ENDBRANCH   1  25
TORSDOF 5
