REMARK  Name = m55
REMARK  10 active torsions:
REMARK  status: ('A' for Active; 'I' for Inactive)
REMARK    1  A    between atoms: C_1  and  C_2
REMARK    2  A    between atoms: C_2  and  S_3
REMARK    3  A    between atoms: S_3  and  C_4
REMARK    4  A    between atoms: C_7  and  C_8
REMARK    5  A    between atoms: N_10  and  C_11
REMARK    6  A    between atoms: N_15  and  S_16
REMARK    7  A    between atoms: S_16  and  C_19
REMARK    8  A    between atoms: C_25  and  C_26
REMARK    9  A    between atoms: N_29  and  C_30
REMARK   10  A    between atoms: C_30  and  C_31
REMARK                            x       y       z     vdW  Elec       q    Type
REMARK                         _______ _______ _______ _____ _____    ______ ____
ROOT
ATOM      1  C   UNL     1       1.740  -1.484   0.027  0.00  0.00    +0.134 A 
ATOM      2  C   UNL     1       0.483  -1.534   0.650  0.00  0.00    +0.020 A 
ATOM      3  C   UNL     1      -0.114  -0.539   1.617  0.00  0.00    +0.148 C 
ATOM      4  N   UNL     1      -1.541  -0.880   1.769  0.00  0.00    -0.172 NA
ATOM      5  C   UNL     1      -1.906  -2.294   1.938  0.00  0.00    +0.116 C 
ATOM      6  C   UNL     1      -1.533  -3.069   0.670  0.00  0.00    +0.072 C 
ATOM      7  C   UNL     1      -0.148  -2.658   0.235  0.00  0.00    +0.045 A 
ATOM      8  N   UNL     1       0.675  -3.308  -0.608  0.00  0.00    -0.270 N 
ATOM      9  C   UNL     1       0.390  -4.578  -1.280  0.00  0.00    +0.172 C 
ATOM     10  N   UNL     1       1.855  -2.559  -0.730  0.00  0.00    -0.168 NA
ENDROOT
BRANCH   1  13
ATOM     11  C   UNL     1       4.569   0.785   0.037  0.00  0.00    +0.192 A 
ATOM     12  N   UNL     1       3.987  -0.365  -0.415  0.00  0.00    -0.301 N 
ATOM     13  C   UNL     1       2.754  -0.420   0.192  0.00  0.00    +0.185 A 
ATOM     14  N   UNL     1       2.646   0.651   0.943  0.00  0.00    -0.127 NA
ATOM     15  N   UNL     1       3.714   1.360   0.851  0.00  0.00    -0.122 NA
BRANCH  12  16
ATOM     16  C   UNL     1       4.560  -1.340  -1.347  0.00  0.00    +0.122 C 
ATOM     17  C   UNL     1       4.180  -0.961  -2.780  0.00  0.00    +0.027 C 
ENDBRANCH  12  16
BRANCH  11  18
ATOM     18  S   UNL     1       6.167   1.389  -0.397  0.00  0.00    -0.086 S 
BRANCH  18  20
ATOM     19  C   UNL     1       7.534   3.632   0.351  0.00  0.00    +0.016 C 
ATOM     20  C   UNL     1       6.201   2.915   0.575  0.00  0.00    +0.074 C 
ENDBRANCH  18  20
ENDBRANCH  11  18
ENDBRANCH   1  13
BRANCH   4  21
ATOM     21  S   UNL     1      -2.702   0.300   1.749  0.00  0.00    +0.061 S 
ATOM     22  O   UNL     1      -2.032   1.507   2.084  0.00  0.00    -0.153 OA
ATOM     23  O   UNL     1      -3.816  -0.243   2.445  0.00  0.00    -0.153 OA
BRANCH  21  24
ATOM     24  C   UNL     1      -3.229   0.493   0.079  0.00  0.00    +0.110 A 
ATOM     25  C   UNL     1      -4.394   1.179  -0.203  0.00  0.00    -0.006 A 
ATOM     26  C   UNL     1      -5.212   1.768   0.917  0.00  0.00    +0.047 C 
ATOM     27  C   UNL     1      -4.805   1.335  -1.516  0.00  0.00    +0.046 A 
ATOM     28 CL   UNL     1      -6.266   2.202  -1.871  0.00  0.00    -0.083 Cl
ATOM     29  C   UNL     1      -4.054   0.794  -2.544  0.00  0.00    +0.020 A 
ATOM     30  C   UNL     1      -2.890   0.104  -2.260  0.00  0.00    +0.003 A 
ATOM     31  C   UNL     1      -2.478  -0.047  -0.949  0.00  0.00    +0.029 A 
ENDBRANCH  21  24
ENDBRANCH   4  21
TORSDOF 6
