REMARK  Name = m56
REMARK  8 active torsions:
REMARK  status: ('A' for Active; 'I' for Inactive)
REMARK    1  A    between atoms: C_1  and  C_2
REMARK    2  A    between atoms: C_2  and  C_3
REMARK    3  A    between atoms: C_3  and  C_4
REMARK    4  A    between atoms: C_7  and  C_8
REMARK    5  A    between atoms: C_8  and  N_9
REMARK    6  A    between atoms: N_19  and  C_20
REMARK    7  A    between atoms: C_20  and  C_21
REMARK    8  A    between atoms: C_30  and  C_31
REMARK                            x       y       z     vdW  Elec       q    Type
REMARK                         _______ _______ _______ _____ _____    ______ ____
ROOT
ATOM      1  N   UNL     1       2.349  -0.667   1.725  0.00  0.00    -0.288 N 
ATOM      2  C   UNL     1       1.371  -0.353   0.847  0.00  0.00    +0.279 A 
ATOM      3  O   UNL     1       1.050   0.808   0.659  0.00  0.00    -0.265 OA
ATOM      4  C   UNL     1       0.732  -1.404   0.148  0.00  0.00    +0.134 A 
ATOM      5  C   UNL     1       1.137  -2.711   0.407  0.00  0.00    +0.103 A 
ATOM      6  C   UNL     1       0.311  -3.579  -0.443  0.00  0.00    +0.026 A 
ATOM      7  C   UNL     1      -0.546  -2.730  -1.166  0.00  0.00    +0.052 A 
ATOM      8  C   UNL     1      -1.454  -3.285  -2.064  0.00  0.00    +0.026 A 
ATOM      9  C   UNL     1      -1.503  -4.651  -2.234  0.00  0.00    +0.002 A 
ATOM     10  C   UNL     1      -0.655  -5.484  -1.517  0.00  0.00    +0.001 A 
ATOM     11  C   UNL     1       0.243  -4.960  -0.631  0.00  0.00    +0.012 A 
ATOM     12  N   UNL     1       2.116  -2.942   1.300  0.00  0.00    -0.235 NA
ATOM     13  N   UNL     1      -0.277  -1.430  -0.796  0.00  0.00    -0.325 N 
ATOM     14  C   UNL     1       2.697  -1.962   1.932  0.00  0.00    +0.203 A 
ENDROOT
BRANCH   1  15
ATOM     15  C   UNL     1       3.034   0.398   2.462  0.00  0.00    +0.225 C 
BRANCH  15  18
ATOM     16  C   UNL     1       5.540   1.869   0.353  0.00  0.00    +0.172 A 
ATOM     17  N   UNL     1       4.268   1.818   0.787  0.00  0.00    -0.195 NA
ATOM     18  C   UNL     1       4.237   0.857   1.678  0.00  0.00    +0.247 A 
ATOM     19  O   UNL     1       5.477   0.366   1.763  0.00  0.00    -0.336 OA
ATOM     20  N   UNL     1       6.207   0.959   0.997  0.00  0.00    -0.061 NA
BRANCH  16  21
ATOM     21  C   UNL     1       6.092   2.813  -0.684  0.00  0.00    +0.079 C 
BRANCH  21  23
ATOM     22  C   UNL     1       6.531   3.135  -3.122  0.00  0.00    +0.004 C 
ATOM     23  C   UNL     1       5.971   2.176  -2.069  0.00  0.00    +0.004 C 
ENDBRANCH  21  23
ENDBRANCH  16  21
ENDBRANCH  15  18
ENDBRANCH   1  15
BRANCH  13  24
ATOM     24  C   UNL     1      -0.960  -0.248  -1.327  0.00  0.00    +0.218 C 
BRANCH  24  25
ATOM     25  C   UNL     1      -2.162   0.063  -0.473  0.00  0.00    +0.240 C 
ATOM     26  N   UNL     1      -2.949   1.115  -0.773  0.00  0.00    -0.264 N 
ATOM     27  C   UNL     1      -4.155   1.361  -0.090  0.00  0.00    +0.079 A 
ATOM     28  C   UNL     1      -4.854   2.543  -0.311  0.00  0.00    +0.142 A 
ATOM     29  C   UNL     1      -6.026   2.776   0.404  0.00  0.00    +0.048 A 
ATOM     30  C   UNL     1      -6.484   1.845   1.314  0.00  0.00    +0.007 A 
ATOM     31  C   UNL     1      -5.786   0.671   1.526  0.00  0.00    -0.048 A 
ATOM     32  C   UNL     1      -6.295  -0.343   2.518  0.00  0.00    +0.044 C 
ATOM     33  O   UNL     1      -4.449   3.480  -1.200  0.00  0.00    -0.489 OA
ATOM     34  C   UNL     1      -3.036   3.456  -1.345  0.00  0.00    +0.248 C 
ATOM     35  C   UNL     1      -4.619   0.429   0.826  0.00  0.00    +0.030 A 
ATOM     36  C   UNL     1      -2.596   2.071  -1.841  0.00  0.00    +0.155 C 
ATOM     37  O   UNL     1      -2.422  -0.634   0.485  0.00  0.00    -0.273 OA
ENDBRANCH  24  25
ENDBRANCH  13  24
TORSDOF 6
