REMARK  Name = m57
REMARK  10 active torsions:
REMARK  status: ('A' for Active; 'I' for Inactive)
REMARK    1  A    between atoms: C_1  and  O_2
REMARK    2  A    between atoms: O_2  and  C_3
REMARK    3  A    between atoms: C_3  and  C_5
REMARK    4  A    between atoms: C_7  and  C_8
REMARK    5  A    between atoms: N_14  and  C_15
REMARK    6  A    between atoms: C_15  and  C_16
REMARK    7  A    between atoms: C_21  and  C_22
REMARK    8  A    between atoms: N_27  and  C_28
REMARK    9  A    between atoms: C_33  and  O_34
REMARK   10  A    between atoms: O_34  and  C_35
REMARK                            x       y       z     vdW  Elec       q    Type
REMARK                         _______ _______ _______ _____ _____    ______ ____
ROOT
ATOM      1  C   UNL     1       2.395   2.425  -0.258  0.00  0.00    +0.077 A 
ATOM      2  C   UNL     1       1.583   1.295  -0.075  0.00  0.00    +0.096 A 
ATOM      3  C   UNL     1       0.174   1.407   0.340  0.00  0.00    +0.267 A 
ATOM      4  N   UNL     1      -0.541   0.269   0.484  0.00  0.00    -0.251 N 
ATOM      5  C   UNL     1       0.014  -0.932   0.256  0.00  0.00    +0.339 A 
ATOM      6  N   UNL     1       1.295  -1.085  -0.118  0.00  0.00    -0.242 N 
ATOM      7  O   UNL     1      -0.671  -1.925   0.399  0.00  0.00    -0.246 OA
ATOM      8  O   UNL     1      -0.332   2.493   0.547  0.00  0.00    -0.267 OA
ATOM      9  C   UNL     1       2.117   0.015  -0.301  0.00  0.00    +0.155 A 
ATOM     10  N   UNL     1       3.379  -0.122  -0.674  0.00  0.00    -0.233 NA
ATOM     11  C   UNL     1       4.168   0.919  -0.851  0.00  0.00    +0.041 A 
ATOM     12  C   UNL     1       5.595   0.694  -1.277  0.00  0.00    +0.065 C 
ATOM     13  C   UNL     1       3.718   2.215  -0.653  0.00  0.00    +0.039 A 
ENDROOT
BRANCH   6  14
ATOM     14  C   UNL     1       1.804  -2.373  -0.338  0.00  0.00    +0.094 A 
ATOM     15  C   UNL     1       2.392  -3.080   0.709  0.00  0.00    +0.144 A 
ATOM     16  C   UNL     1       2.888  -4.355   0.487  0.00  0.00    +0.048 A 
ATOM     17  C   UNL     1       2.807  -4.919  -0.772  0.00  0.00    +0.004 A 
ATOM     18  C   UNL     1       2.228  -4.216  -1.813  0.00  0.00    +0.002 A 
ATOM     19  C   UNL     1       1.727  -2.946  -1.599  0.00  0.00    +0.030 A 
BRANCH  15  20
ATOM     20  O   UNL     1       2.470  -2.524   1.947  0.00  0.00    -0.493 OA
ATOM     21  C   UNL     1       3.104  -3.486   2.792  0.00  0.00    +0.277 C 
ENDBRANCH  15  20
ENDBRANCH   6  14
BRANCH   1  22
ATOM     22  C   UNL     1       1.869   3.792  -0.035  0.00  0.00    +0.340 C 
ATOM     23  O   UNL     1       0.848   4.147  -0.587  0.00  0.00    -0.245 OA
BRANCH  22  25
ATOM     24  C   UNL     1       2.010   5.981   0.999  0.00  0.00    +0.280 C 
ATOM     25  O   UNL     1       2.525   4.641   0.780  0.00  0.00    -0.464 OA
ENDBRANCH  22  25
ENDBRANCH   1  22
BRANCH   4  26
ATOM     26  C   UNL     1      -1.945   0.347   0.895  0.00  0.00    +0.225 C 
BRANCH  26  27
ATOM     27  C   UNL     1      -2.821   0.449  -0.327  0.00  0.00    +0.236 C 
ATOM     28  N   UNL     1      -4.160   0.533  -0.192  0.00  0.00    -0.300 N 
ATOM     29  C   UNL     1      -4.779   0.520   1.141  0.00  0.00    +0.108 C 
ATOM     30  C   UNL     1      -5.842  -0.577   1.184  0.00  0.00    +0.022 C 
ATOM     31  C   UNL     1      -6.830  -0.373   0.033  0.00  0.00    -0.011 C 
ATOM     32  C   UNL     1      -7.913  -1.452   0.093  0.00  0.00    +0.007 C 
ATOM     33  C   UNL     1      -6.087  -0.470  -1.302  0.00  0.00    +0.022 C 
ATOM     34  C   UNL     1      -5.027   0.633  -1.373  0.00  0.00    +0.108 C 
ATOM     35  O   UNL     1      -2.322   0.456  -1.432  0.00  0.00    -0.274 OA
ENDBRANCH  26  27
ENDBRANCH   4  26
TORSDOF 6
