REMARK  Name = m59
REMARK  11 active torsions:
REMARK  status: ('A' for Active; 'I' for Inactive)
REMARK    1  A    between atoms: C_1  and  C_2
REMARK    2  A    between atoms: C_2  and  S_3
REMARK    3  A    between atoms: S_3  and  C_4
REMARK    4  A    between atoms: C_7  and  C_8
REMARK    5  A    between atoms: N_10  and  C_11
REMARK    6  A    between atoms: N_15  and  S_16
REMARK    7  A    between atoms: S_16  and  C_19
REMARK    8  A    between atoms: C_22  and  O_23
REMARK    9  A    between atoms: O_23  and  C_24
REMARK   10  A    between atoms: N_30  and  C_31
REMARK   11  A    between atoms: C_31  and  C_32
REMARK                            x       y       z     vdW  Elec       q    Type
REMARK                         _______ _______ _______ _____ _____    ______ ____
ROOT
ATOM      1  C   UNL     1       1.509  -1.480  -0.709  0.00  0.00    +0.134 A 
ATOM      2  C   UNL     1       0.318  -1.855  -0.068  0.00  0.00    +0.020 A 
ATOM      3  C   UNL     1      -0.108  -1.556   1.350  0.00  0.00    +0.148 C 
ATOM      4  N   UNL     1      -1.535  -1.910   1.461  0.00  0.00    -0.172 NA
ATOM      5  C   UNL     1      -1.988  -3.177   0.869  0.00  0.00    +0.116 C 
ATOM      6  C   UNL     1      -1.797  -3.123  -0.650  0.00  0.00    +0.072 C 
ATOM      7  C   UNL     1      -0.433  -2.554  -0.952  0.00  0.00    +0.045 A 
ATOM      8  N   UNL     1       0.255  -2.637  -2.106  0.00  0.00    -0.270 N 
ATOM      9  C   UNL     1      -0.189  -3.319  -3.324  0.00  0.00    +0.172 C 
ATOM     10  N   UNL     1       1.470  -1.958  -1.939  0.00  0.00    -0.168 NA
ENDROOT
BRANCH   1  13
ATOM     11  C   UNL     1       4.491   0.374   0.202  0.00  0.00    +0.192 A 
ATOM     12  N   UNL     1       3.783  -0.327  -0.733  0.00  0.00    -0.301 N 
ATOM     13  C   UNL     1       2.613  -0.697  -0.111  0.00  0.00    +0.185 A 
ATOM     14  N   UNL     1       2.658  -0.220   1.111  0.00  0.00    -0.127 NA
ATOM     15  N   UNL     1       3.763   0.410   1.295  0.00  0.00    -0.122 NA
BRANCH  12  16
ATOM     16  C   UNL     1       4.188  -0.629  -2.107  0.00  0.00    +0.122 C 
ATOM     17  C   UNL     1       3.704   0.485  -3.038  0.00  0.00    +0.027 C 
ENDBRANCH  12  16
BRANCH  11  18
ATOM     18  S   UNL     1       6.081   1.100  -0.019  0.00  0.00    -0.086 S 
BRANCH  18  20
ATOM     19  C   UNL     1       7.679   2.539   1.666  0.00  0.00    +0.016 C 
ATOM     20  C   UNL     1       6.323   1.832   1.619  0.00  0.00    +0.074 C 
ENDBRANCH  18  20
ENDBRANCH  11  18
ENDBRANCH   1  13
BRANCH   4  21
ATOM     21  S   UNL     1      -2.600  -0.905   2.233  0.00  0.00    +0.061 S 
ATOM     22  O   UNL     1      -1.814  -0.107   3.108  0.00  0.00    -0.153 OA
ATOM     23  O   UNL     1      -3.690  -1.727   2.627  0.00  0.00    -0.153 OA
BRANCH  21  24
ATOM     24  C   UNL     1      -3.248   0.203   1.027  0.00  0.00    +0.107 A 
ATOM     25  C   UNL     1      -2.615   1.409   0.786  0.00  0.00    +0.052 A 
ATOM     26  C   UNL     1      -3.118   2.277  -0.164  0.00  0.00    +0.084 A 
ATOM     27 CL   UNL     1      -2.319   3.788  -0.471  0.00  0.00    -0.080 Cl
ATOM     28  C   UNL     1      -4.266   1.943  -0.869  0.00  0.00    +0.138 A 
ATOM     29  C   UNL     1      -4.902   0.736  -0.621  0.00  0.00    +0.049 A 
ATOM     30  C   UNL     1      -4.392  -0.131   0.326  0.00  0.00    +0.032 A 
BRANCH  28  31
ATOM     31  O   UNL     1      -4.767   2.798  -1.800  0.00  0.00    -0.494 OA
ATOM     32  C   UNL     1      -5.935   2.179  -2.343  0.00  0.00    +0.277 C 
ENDBRANCH  28  31
ENDBRANCH  21  24
ENDBRANCH   4  21
TORSDOF 7
