REMARK  Name = m60
REMARK  9 active torsions:
REMARK  status: ('A' for Active; 'I' for Inactive)
REMARK    1  A    between atoms: C_1  and  C_2
REMARK    2  A    between atoms: C_7  and  N_8
REMARK    3  A    between atoms: N_8  and  S_9
REMARK    4  A    between atoms: S_9  and  C_12
REMARK    5  A    between atoms: C_14  and  C_15
REMARK    6  A    between atoms: C_17  and  C_18
REMARK    7  A    between atoms: C_19  and  C_20
REMARK    8  A    between atoms: N_30  and  C_31
REMARK    9  A    between atoms: C_32  and  C_33
REMARK                            x       y       z     vdW  Elec       q    Type
REMARK                         _______ _______ _______ _____ _____    ______ ____
ROOT
ATOM      1  C   UNL     1       2.490   0.754  -1.052  0.00  0.00    +0.130 A 
ATOM      2  C   UNL     1       2.579   2.020  -0.582  0.00  0.00    +0.043 A 
ATOM      3  C   UNL     1       3.820   2.875  -0.590  0.00  0.00    +0.065 C 
ATOM      4  N   UNL     1       1.360   2.395  -0.110  0.00  0.00    -0.344 N 
ATOM      5  C   UNL     1       1.035   3.695   0.480  0.00  0.00    +0.149 C 
ATOM      6  C   UNL     1       0.486   1.347  -0.275  0.00  0.00    +0.076 A 
ATOM      7  C   UNL     1       1.172   0.319  -0.859  0.00  0.00    +0.059 A 
ENDROOT
BRANCH   6   8
ATOM      8  C   UNL     1      -0.932   1.334   0.109  0.00  0.00    +0.126 A 
ATOM      9  S   UNL     1      -2.140   0.028  -0.071  0.00  0.00    -0.061 S 
ATOM     10  C   UNL     1      -3.521   0.904   0.653  0.00  0.00    +0.097 A 
ATOM     11  C   UNL     1      -2.921   2.120   0.957  0.00  0.00    +0.058 A 
ATOM     12  C   UNL     1      -3.719   3.224   1.601  0.00  0.00    +0.067 C 
ATOM     13  N   UNL     1      -1.660   2.294   0.679  0.00  0.00    -0.242 NA
BRANCH  10  14
ATOM     14  C   UNL     1      -4.902   0.465   0.861  0.00  0.00    +0.255 C 
ATOM     15  N   UNL     1      -5.246  -0.816   0.618  0.00  0.00    -0.297 N 
ATOM     16  C   UNL     1      -6.668  -1.198   0.718  0.00  0.00    +0.108 C 
ATOM     17  C   UNL     1      -7.095  -2.135  -0.430  0.00  0.00    +0.019 C 
ATOM     18  C   UNL     1      -6.470  -1.688  -1.729  0.00  0.00    +0.002 C 
ATOM     19  C   UNL     1      -5.141  -2.412  -1.925  0.00  0.00    +0.002 C 
ATOM     20  C   UNL     1      -3.997  -1.770  -1.258  0.00  0.00    +0.019 C 
ATOM     21  C   UNL     1      -4.205  -1.760   0.276  0.00  0.00    +0.108 C 
ATOM     22  O   UNL     1      -5.740   1.256   1.254  0.00  0.00    -0.269 OA
ENDBRANCH  10  14
ENDBRANCH   6   8
BRANCH   1  23
ATOM     23  S   UNL     1       3.798  -0.181  -1.772  0.00  0.00    +0.075 S 
ATOM     24  O   UNL     1       3.255  -1.469  -2.030  0.00  0.00    -0.150 OA
ATOM     25  O   UNL     1       4.394   0.670  -2.741  0.00  0.00    -0.150 OA
BRANCH  23  26
ATOM     26  N   UNL     1       4.948  -0.405  -0.601  0.00  0.00    -0.199 N 
ATOM     27  H   UNL     1       5.838  -0.037  -0.719  0.00  0.00    +0.175 HD
BRANCH  26  30
ATOM     28  C   UNL     1       7.054  -0.950   1.232  0.00  0.00    +0.047 C 
ATOM     29  C   UNL     1       5.640  -1.412   1.471  0.00  0.00    -0.009 A 
ATOM     30  C   UNL     1       4.639  -1.121   0.549  0.00  0.00    +0.141 A 
ATOM     31  N   UNL     1       3.396  -1.530   0.753  0.00  0.00    -0.239 NA
ATOM     32  C   UNL     1       3.060  -2.212   1.832  0.00  0.00    +0.113 A 
ATOM     33  C   UNL     1       4.002  -2.530   2.790  0.00  0.00    +0.020 A 
ATOM     34  C   UNL     1       5.318  -2.125   2.611  0.00  0.00    +0.008 A 
ENDBRANCH  26  30
ENDBRANCH  23  26
ENDBRANCH   1  23
TORSDOF 5
