REMARK  Name = m61
REMARK  9 active torsions:
REMARK  status: ('A' for Active; 'I' for Inactive)
REMARK    1  A    between atoms: C_1  and  C_2
REMARK    2  A    between atoms: C_2  and  O_3
REMARK    3  A    between atoms: O_3  and  C_4
REMARK    4  A    between atoms: C_4  and  C_6
REMARK    5  A    between atoms: C_9  and  N_10
REMARK    6  A    between atoms: C_11  and  C_13
REMARK    7  A    between atoms: C_14  and  C_15
REMARK    8  A    between atoms: C_19  and  O_20
REMARK    9  A    between atoms: O_20  and  C_21
REMARK                            x       y       z     vdW  Elec       q    Type
REMARK                         _______ _______ _______ _____ _____    ______ ____
ROOT
ATOM      1  C   UNL     1      -1.601  -0.545   0.171  0.00  0.00    +0.133 A 
ATOM      2  N   UNL     1      -2.283  -1.755  -0.001  0.00  0.00    -0.303 N 
ATOM      3  C   UNL     1      -1.916  -3.173  -0.087  0.00  0.00    +0.148 C 
ATOM      4  C   UNL     1      -3.030  -4.017  -0.751  0.00  0.00    +0.197 C 
ATOM      5  S   UNL     1      -4.473  -2.949  -0.346  0.00  0.00    +0.032 S 
ATOM      6  O   UNL     1      -5.276  -2.672  -1.485  0.00  0.00    -0.166 OA
ATOM      7  O   UNL     1      -5.023  -3.247   0.930  0.00  0.00    -0.166 OA
ATOM      8  C   UNL     1      -3.588  -1.426  -0.070  0.00  0.00    +0.252 A 
ATOM      9  N   UNL     1      -3.756  -0.143   0.069  0.00  0.00    -0.211 NA
ATOM     10  C   UNL     1      -2.563   0.450   0.215  0.00  0.00    +0.103 A 
ENDROOT
BRANCH  10  11
ATOM     11  C   UNL     1      -2.319   1.901   0.390  0.00  0.00    +0.006 A 
ATOM     12  C   UNL     1      -3.057   2.827  -0.345  0.00  0.00    +0.055 A 
ATOM     13  C   UNL     1      -2.828   4.182  -0.172  0.00  0.00    +0.121 A 
ATOM     14  C   UNL     1      -1.858   4.614   0.722  0.00  0.00    +0.045 A 
ATOM     15  C   UNL     1      -1.121   3.696   1.447  0.00  0.00    +0.004 A 
ATOM     16  C   UNL     1      -1.346   2.344   1.286  0.00  0.00    +0.010 A 
BRANCH  13  17
ATOM     17  O   UNL     1      -3.550   5.089  -0.882  0.00  0.00    -0.495 OA
ATOM     18  C   UNL     1      -3.084   6.383  -0.493  0.00  0.00    +0.277 C 
ENDBRANCH  13  17
ENDBRANCH  10  11
BRANCH   1  21
ATOM     19  N   UNL     1       0.666  -1.435   0.218  0.00  0.00    -0.280 N 
ATOM     20  H   UNL     1       0.293  -2.329   0.185  0.00  0.00    +0.155 HD
ATOM     21  C   UNL     1      -0.152  -0.365   0.279  0.00  0.00    +0.267 C 
ATOM     22  O   UNL     1       0.314   0.750   0.423  0.00  0.00    -0.268 OA
BRANCH  19  26
ATOM     23  C   UNL     1       4.795  -0.898   0.174  0.00  0.00    +0.059 A 
ATOM     24  C   UNL     1       3.966  -0.017  -0.527  0.00  0.00    +0.017 A 
ATOM     25  C   UNL     1       2.603  -0.200  -0.514  0.00  0.00    +0.024 A 
ATOM     26  C   UNL     1       2.047  -1.255   0.204  0.00  0.00    +0.034 A 
ATOM     27  C   UNL     1       2.869  -2.132   0.907  0.00  0.00    +0.024 A 
ATOM     28  C   UNL     1       4.234  -1.957   0.895  0.00  0.00    +0.017 A 
BRANCH  23  29
ATOM     29  C   UNL     1       6.257  -0.708   0.159  0.00  0.00    +0.339 C 
ATOM     30  O   UNL     1       6.976  -1.472   0.773  0.00  0.00    -0.245 OA
BRANCH  29  31
ATOM     31  O   UNL     1       6.797   0.313  -0.536  0.00  0.00    -0.461 OA
BRANCH  31  33
ATOM     32  C   UNL     1       8.583   1.720  -1.406  0.00  0.00    +0.048 C 
ATOM     33  C   UNL     1       8.236   0.500  -0.551  0.00  0.00    +0.229 C 
ENDBRANCH  31  33
ENDBRANCH  29  31
ENDBRANCH  23  29
ENDBRANCH  19  26
ENDBRANCH   1  21
TORSDOF 7
