REMARK  Name = m62
REMARK  4 active torsions:
REMARK  status: ('A' for Active; 'I' for Inactive)
REMARK    1  A    between atoms: C_1  and  O_2
REMARK    2  A    between atoms: O_2  and  C_3
REMARK    3  A    between atoms: C_10  and  C_12
REMARK    4  A    between atoms: C_17  and  C_18
REMARK                            x       y       z     vdW  Elec       q    Type
REMARK                         _______ _______ _______ _____ _____    ______ ____
ROOT
ATOM      1  C   UNL     1      -1.472  -2.533   0.048  0.00  0.00    +0.082 A 
ATOM      2  C   UNL     1      -2.850  -2.043   0.149  0.00  0.00    +0.105 A 
ATOM      3  N   UNL     1      -3.635  -3.096   0.119  0.00  0.00    -0.173 NA
ATOM      4  N   UNL     1      -2.850  -4.248   0.012  0.00  0.00    -0.283 N 
ATOM      5  H   UNL     1      -3.192  -5.155  -0.025  0.00  0.00    +0.188 HD
ATOM      6  C   UNL     1      -1.553  -3.909  -0.030  0.00  0.00    +0.118 A 
ENDROOT
BRANCH   1  15
ATOM      7  C   UNL     1       6.079   1.359  -0.081  0.00  0.00    +0.121 A 
ATOM      8  C   UNL     1       5.850  -0.006  -0.158  0.00  0.00    +0.063 A 
ATOM      9  C   UNL     1       4.562  -0.480  -0.119  0.00  0.00    +0.044 A 
ATOM     10  C   UNL     1       3.438   0.371  -0.015  0.00  0.00    +0.081 A 
ATOM     11  N   UNL     1       2.236  -0.248   0.006  0.00  0.00    -0.225 NA
ATOM     12  C   UNL     1       2.113  -1.552  -0.066  0.00  0.00    +0.166 A 
ATOM     13  N   UNL     1       0.959  -2.318  -0.056  0.00  0.00    -0.261 N 
ATOM     14  H   UNL     1       1.017  -3.284  -0.117  0.00  0.00    +0.157 HD
ATOM     15  C   UNL     1      -0.245  -1.720   0.038  0.00  0.00    +0.253 C 
ATOM     16  O   UNL     1      -0.318  -0.508   0.114  0.00  0.00    -0.270 OA
ATOM     17  C   UNL     1       3.707   1.757   0.056  0.00  0.00    +0.032 A 
ATOM     18  S   UNL     1       3.814  -2.090  -0.179  0.00  0.00    -0.052 S 
ATOM     19  C   UNL     1       4.994   2.225   0.022  0.00  0.00    +0.048 A 
BRANCH   7  21
ATOM     20  C   UNL     1       7.246   3.270  -0.022  0.00  0.00    +0.277 C 
ATOM     21  O   UNL     1       7.348   1.847  -0.113  0.00  0.00    -0.495 OA
ENDBRANCH   7  21
ENDBRANCH   1  15
BRANCH   2  22
ATOM     22  C   UNL     1      -3.278  -0.628   0.257  0.00  0.00    +0.007 A 
ATOM     23  C   UNL     1      -4.395  -0.180  -0.440  0.00  0.00    +0.059 A 
ATOM     24  C   UNL     1      -4.806   1.146  -0.340  0.00  0.00    +0.163 A 
ATOM     25  O   UNL     1      -5.901   1.500  -1.062  0.00  0.00    -0.485 OA
ATOM     26  C   UNL     1      -6.430   2.712  -0.532  0.00  0.00    +0.270 C 
ATOM     27  C   UNL     1      -5.287   3.729  -0.435  0.00  0.00    +0.270 C 
ATOM     28  O   UNL     1      -4.427   3.331   0.628  0.00  0.00    -0.485 OA
ATOM     29  C   UNL     1      -4.092   2.026   0.458  0.00  0.00    +0.162 A 
ATOM     30  C   UNL     1      -2.966   1.575   1.148  0.00  0.00    +0.050 A 
ATOM     31  C   UNL     1      -2.559   0.264   1.052  0.00  0.00    +0.014 A 
ENDBRANCH   2  22
TORSDOF 3
