REMARK  Name = m64
REMARK  11 active torsions:
REMARK  status: ('A' for Active; 'I' for Inactive)
REMARK    1  A    between atoms: C_1  and  C_2
REMARK    2  A    between atoms: C_2  and  N_3
REMARK    3  A    between atoms: C_5  and  C_6
REMARK    4  A    between atoms: C_7  and  C_8
REMARK    5  A    between atoms: C_8  and  N_9
REMARK    6  A    between atoms: C_13  and  C_14
REMARK    7  A    between atoms: C_15  and  C_16
REMARK    8  A    between atoms: N_18  and  C_19
REMARK    9  A    between atoms: C_19  and  C_20
REMARK   10  A    between atoms: C_20  and  O_21
REMARK   11  A    between atoms: C_30  and  C_31
REMARK                            x       y       z     vdW  Elec       q    Type
REMARK                         _______ _______ _______ _____ _____    ______ ____
ROOT
ATOM      1  C   UNL     1      -2.144  -0.884   0.316  0.00  0.00    +0.011 A 
ATOM      2  C   UNL     1      -2.779  -2.134   0.212  0.00  0.00    +0.014 A 
ATOM      3  C   UNL     1      -4.110  -2.105  -0.274  0.00  0.00    +0.109 A 
ATOM      4  N   UNL     1      -4.833  -3.192  -0.422  0.00  0.00    -0.248 NA
ATOM      5  C   UNL     1      -4.352  -4.381  -0.117  0.00  0.00    +0.112 A 
ATOM      6  C   UNL     1      -3.060  -4.512   0.371  0.00  0.00    +0.020 A 
ATOM      7  S   UNL     1      -4.399  -0.377  -0.566  0.00  0.00    -0.064 S 
ATOM      8  C   UNL     1      -2.267  -3.416   0.544  0.00  0.00    +0.012 A 
ATOM      9  C   UNL     1      -2.808   0.244  -0.049  0.00  0.00    +0.082 A 
ENDROOT
BRANCH   1  12
ATOM     10  N   UNL     1       1.606  -0.528   0.136  0.00  0.00    -0.293 NA
ATOM     11  C   UNL     1       0.219  -0.543  -0.348  0.00  0.00    +0.121 C 
ATOM     12  C   UNL     1      -0.729  -0.797   0.825  0.00  0.00    +0.164 C 
ATOM     13  O   UNL     1      -0.628   0.272   1.766  0.00  0.00    -0.369 OA
ATOM     14  C   UNL     1       0.707   0.263   2.272  0.00  0.00    +0.176 C 
ATOM     15  C   UNL     1       1.691   0.544   1.136  0.00  0.00    +0.113 C 
BRANCH  10  16
ATOM     16  C   UNL     1       2.444  -0.115  -0.998  0.00  0.00    +0.123 C 
BRANCH  16  20
ATOM     17  N   UNL     1       5.923   0.040   0.082  0.00  0.00    -0.268 N 
ATOM     18  C   UNL     1       4.703   0.599  -0.056  0.00  0.00    +0.041 A 
ATOM     19  C   UNL     1       4.312   1.993   0.363  0.00  0.00    +0.065 C 
ATOM     20  C   UNL     1       3.896  -0.312  -0.647  0.00  0.00    +0.010 A 
ATOM     21  C   UNL     1       4.647  -1.471  -0.869  0.00  0.00    +0.065 A 
ATOM     22  C   UNL     1       4.142  -2.743  -1.502  0.00  0.00    +0.068 C 
ATOM     23  N   UNL     1       5.862  -1.261  -0.433  0.00  0.00    -0.176 NA
BRANCH  17  25
ATOM     24  C   UNL     1       7.894   1.398  -0.423  0.00  0.00    +0.029 C 
ATOM     25  C   UNL     1       7.103   0.679   0.672  0.00  0.00    +0.140 C 
ENDBRANCH  17  25
ENDBRANCH  16  20
ENDBRANCH  10  16
ENDBRANCH   1  12
BRANCH   9  26
ATOM     26  C   UNL     1      -2.332   1.635  -0.025  0.00  0.00    +0.251 C 
ATOM     27  N   UNL     1      -3.143   2.632  -0.430  0.00  0.00    -0.309 N 
ATOM     28  H   UNL     1      -4.040   2.432  -0.737  0.00  0.00    +0.149 HD
ATOM     29  O   UNL     1      -1.205   1.885   0.361  0.00  0.00    -0.270 OA
BRANCH  27  30
ATOM     30  C   UNL     1      -2.668   4.018  -0.405  0.00  0.00    +0.132 C 
BRANCH  30  31
ATOM     31  C   UNL     1      -3.775   4.945  -0.911  0.00  0.00    +0.174 C 
BRANCH  31  32
ATOM     32  O   UNL     1      -4.879   4.907  -0.005  0.00  0.00    -0.393 OA
ATOM     33  H   UNL     1      -5.552   5.504  -0.359  0.00  0.00    +0.209 HD
ENDBRANCH  31  32
ENDBRANCH  30  31
ENDBRANCH  27  30
ENDBRANCH   9  26
TORSDOF 8
