REMARK  Name = m65
REMARK  6 active torsions:
REMARK  status: ('A' for Active; 'I' for Inactive)
REMARK    1  A    between atoms: C_1  and  C_2
REMARK    2  A    between atoms: C_9  and  C_11
REMARK    3  A    between atoms: C_11  and  N_12
REMARK    4  A    between atoms: N_22  and  C_23
REMARK    5  A    between atoms: C_23  and  C_24
REMARK    6  A    between atoms: C_26  and  C_27
REMARK                            x       y       z     vdW  Elec       q    Type
REMARK                         _______ _______ _______ _____ _____    ______ ____
ROOT
ATOM      1  N   UNL     1       0.401   1.494  -0.791  0.00  0.00    -0.325 N 
ATOM      2  C   UNL     1      -0.655   1.436   0.099  0.00  0.00    +0.134 A 
ATOM      3  C   UNL     1      -1.030   2.735   0.433  0.00  0.00    +0.103 A 
ATOM      4  N   UNL     1      -2.043   2.938   1.295  0.00  0.00    -0.235 NA
ATOM      5  C   UNL     1      -2.682   1.938   1.830  0.00  0.00    +0.203 A 
ATOM      6  N   UNL     1      -2.364   0.649   1.550  0.00  0.00    -0.288 N 
ATOM      7  C   UNL     1      -0.140   3.632  -0.317  0.00  0.00    +0.026 A 
ATOM      8  C   UNL     1      -0.024   5.019  -0.405  0.00  0.00    +0.012 A 
ATOM      9  C   UNL     1       0.931   5.573  -1.211  0.00  0.00    +0.001 A 
ATOM     10  C   UNL     1       1.787   4.764  -1.945  0.00  0.00    +0.002 A 
ATOM     11  C   UNL     1       1.690   3.392  -1.873  0.00  0.00    +0.026 A 
ATOM     12  C   UNL     1      -1.359   0.363   0.693  0.00  0.00    +0.279 A 
ATOM     13  O   UNL     1      -1.067  -0.793   0.436  0.00  0.00    -0.265 OA
ATOM     14  C   UNL     1       0.725   2.807  -1.057  0.00  0.00    +0.052 A 
ENDROOT
BRANCH   1  15
ATOM     15  C   UNL     1       1.073   0.329  -1.371  0.00  0.00    +0.218 C 
BRANCH  15  24
ATOM     16  C   UNL     1       6.235  -0.004   2.691  0.00  0.00    +0.044 C 
ATOM     17  C   UNL     1       5.736  -0.936   1.617  0.00  0.00    -0.048 A 
ATOM     18  C   UNL     1       4.607  -0.613   0.888  0.00  0.00    +0.030 A 
ATOM     19  C   UNL     1       4.153  -1.469  -0.104  0.00  0.00    +0.079 A 
ATOM     20  N   UNL     1       2.991  -1.134  -0.826  0.00  0.00    -0.264 N 
ATOM     21  C   UNL     1       2.661  -2.002  -1.973  0.00  0.00    +0.155 C 
ATOM     22  C   UNL     1       3.034  -3.432  -1.556  0.00  0.00    +0.248 C 
ATOM     23  O   UNL     1       4.437  -3.514  -1.346  0.00  0.00    -0.489 OA
ATOM     24  C   UNL     1       2.224  -0.079  -0.488  0.00  0.00    +0.240 C 
ATOM     25  O   UNL     1       2.459   0.542   0.526  0.00  0.00    -0.273 OA
ATOM     26  C   UNL     1       4.824  -2.656  -0.373  0.00  0.00    +0.142 A 
ATOM     27  C   UNL     1       5.954  -2.975   0.376  0.00  0.00    +0.048 A 
ATOM     28  C   UNL     1       6.403  -2.120   1.361  0.00  0.00    +0.007 A 
ENDBRANCH  15  24
ENDBRANCH   1  15
BRANCH   6  29
ATOM     29  C   UNL     1      -3.115  -0.440   2.179  0.00  0.00    +0.225 C 
BRANCH  29  30
ATOM     30  C   UNL     1      -4.292  -0.805   1.312  0.00  0.00    +0.247 A 
ATOM     31  O   UNL     1      -5.521  -0.284   1.378  0.00  0.00    -0.336 OA
ATOM     32  N   UNL     1      -6.230  -0.795   0.537  0.00  0.00    -0.061 NA
ATOM     33  C   UNL     1      -5.560  -1.682  -0.137  0.00  0.00    +0.175 A 
ATOM     34  N   UNL     1      -4.308  -1.699   0.353  0.00  0.00    -0.194 NA
BRANCH  33  35
ATOM     35  C   UNL     1      -6.090  -2.535  -1.261  0.00  0.00    +0.060 C 
ATOM     36  C   UNL     1      -7.488  -2.213  -1.793  0.00  0.00    +0.012 C 
ATOM     37  C   UNL     1      -7.262  -3.468  -0.948  0.00  0.00    +0.012 C 
ENDBRANCH  33  35
ENDBRANCH  29  30
ENDBRANCH   6  29
TORSDOF 5
