REMARK  Name = m66
REMARK  10 active torsions:
REMARK  status: ('A' for Active; 'I' for Inactive)
REMARK    1  A    between atoms: C_1  and  C_2
REMARK    2  A    between atoms: C_2  and  O_3
REMARK    3  A    between atoms: O_3  and  C_4
REMARK    4  A    between atoms: C_4  and  C_6
REMARK    5  A    between atoms: C_8  and  C_9
REMARK    6  A    between atoms: N_15  and  C_16
REMARK    7  A    between atoms: C_16  and  C_17
REMARK    8  A    between atoms: C_19  and  C_20
REMARK    9  A    between atoms: C_28  and  C_29
REMARK   10  A    between atoms: N_32  and  C_33
REMARK                            x       y       z     vdW  Elec       q    Type
REMARK                         _______ _______ _______ _____ _____    ______ ____
ROOT
ATOM      1  C   UNL     1       3.699  -0.177  -0.612  0.00  0.00    +0.077 A 
ATOM      2  C   UNL     1       2.545  -0.689   0.003  0.00  0.00    +0.096 A 
ATOM      3  C   UNL     1       1.614   0.172   0.752  0.00  0.00    +0.267 A 
ATOM      4  N   UNL     1       0.521  -0.399   1.304  0.00  0.00    -0.254 N 
ATOM      5  C   UNL     1       0.287  -1.714   1.175  0.00  0.00    +0.334 A 
ATOM      6  N   UNL     1       1.110  -2.541   0.508  0.00  0.00    -0.281 N 
ATOM      7  C   UNL     1       0.783  -3.966   0.413  0.00  0.00    +0.155 C 
ATOM      8  O   UNL     1      -0.711  -2.180   1.690  0.00  0.00    -0.246 OA
ATOM      9  O   UNL     1       1.822   1.365   0.869  0.00  0.00    -0.267 OA
ATOM     10  C   UNL     1       2.256  -2.060  -0.102  0.00  0.00    +0.151 A 
ATOM     11  N   UNL     1       3.071  -2.862  -0.767  0.00  0.00    -0.234 NA
ATOM     12  C   UNL     1       4.164  -2.413  -1.350  0.00  0.00    +0.041 A 
ATOM     13  C   UNL     1       5.051  -3.381  -2.091  0.00  0.00    +0.065 C 
ATOM     14  C   UNL     1       4.519  -1.075  -1.298  0.00  0.00    +0.039 A 
ENDROOT
BRANCH   1  15
ATOM     15  C   UNL     1       4.038   1.262  -0.529  0.00  0.00    +0.340 C 
ATOM     16  O   UNL     1       3.217   2.099  -0.844  0.00  0.00    -0.245 OA
BRANCH  15  17
ATOM     17  O   UNL     1       5.258   1.643  -0.104  0.00  0.00    -0.461 OA
BRANCH  17  19
ATOM     18  C   UNL     1       7.025   3.212   0.484  0.00  0.00    +0.048 C 
ATOM     19  C   UNL     1       5.590   3.055  -0.023  0.00  0.00    +0.229 C 
ENDBRANCH  17  19
ENDBRANCH  15  17
ENDBRANCH   1  15
BRANCH   4  20
ATOM     20  C   UNL     1      -0.425   0.431   2.055  0.00  0.00    +0.188 C 
BRANCH  20  21
ATOM     21  C   UNL     1      -1.481   0.961   1.119  0.00  0.00    +0.103 A 
ATOM     22  C   UNL     1      -1.424   2.119   0.436  0.00  0.00    +0.127 A 
ATOM     23  C   UNL     1      -0.296   3.118   0.462  0.00  0.00    +0.088 C 
ATOM     24  O   UNL     1      -2.561   2.216  -0.282  0.00  0.00    -0.440 OA
ATOM     25  C   UNL     1      -3.301   1.124  -0.024  0.00  0.00    +0.229 A 
ATOM     26  N   UNL     1      -2.646   0.366   0.824  0.00  0.00    -0.212 NA
BRANCH  25  27
ATOM     27  C   UNL     1      -4.630   0.827  -0.598  0.00  0.00    +0.055 A 
ATOM     28  C   UNL     1      -5.297  -0.351  -0.252  0.00  0.00    +0.053 A 
ATOM     29 CL   UNL     1      -4.570  -1.468   0.861  0.00  0.00    -0.083 Cl
ATOM     30  C   UNL     1      -6.542  -0.619  -0.788  0.00  0.00    +0.021 A 
ATOM     31  C   UNL     1      -7.122   0.270  -1.675  0.00  0.00    +0.001 A 
ATOM     32  C   UNL     1      -6.463   1.435  -2.026  0.00  0.00    +0.001 A 
ATOM     33  C   UNL     1      -5.223   1.718  -1.494  0.00  0.00    +0.014 A 
ENDBRANCH  25  27
ENDBRANCH  20  21
ENDBRANCH   4  20
TORSDOF 6
