REMARK  Name = m67
REMARK  10 active torsions:
REMARK  status: ('A' for Active; 'I' for Inactive)
REMARK    1  A    between atoms: C_1  and  C_2
REMARK    2  A    between atoms: C_2  and  S_3
REMARK    3  A    between atoms: S_3  and  C_4
REMARK    4  A    between atoms: C_7  and  C_8
REMARK    5  A    between atoms: N_10  and  C_11
REMARK    6  A    between atoms: N_15  and  S_16
REMARK    7  A    between atoms: S_16  and  C_19
REMARK    8  A    between atoms: C_22  and  C_23
REMARK    9  A    between atoms: N_29  and  C_30
REMARK   10  A    between atoms: C_30  and  C_31
REMARK                            x       y       z     vdW  Elec       q    Type
REMARK                         _______ _______ _______ _____ _____    ______ ____
ROOT
ATOM      1  C   UNL     1       1.283  -1.548  -0.540  0.00  0.00    +0.134 A 
ATOM      2  C   UNL     1       0.050  -1.794   0.085  0.00  0.00    +0.020 A 
ATOM      3  C   UNL     1      -0.421  -1.305   1.433  0.00  0.00    +0.148 C 
ATOM      4  N   UNL     1      -1.866  -1.586   1.520  0.00  0.00    -0.172 NA
ATOM      5  C   UNL     1      -2.350  -2.898   1.066  0.00  0.00    +0.116 C 
ATOM      6  C   UNL     1      -2.093  -3.040  -0.438  0.00  0.00    +0.072 C 
ATOM      7  C   UNL     1      -0.694  -2.567  -0.742  0.00  0.00    +0.045 A 
ATOM      8  N   UNL     1       0.038  -2.819  -1.844  0.00  0.00    -0.270 N 
ATOM      9  C   UNL     1      -0.384  -3.629  -2.989  0.00  0.00    +0.172 C 
ATOM     10  N   UNL     1       1.274  -2.172  -1.704  0.00  0.00    -0.168 NA
ENDROOT
BRANCH   1  13
ATOM     11  C   UNL     1       4.303   0.286   0.277  0.00  0.00    +0.192 A 
ATOM     12  N   UNL     1       3.604  -0.497  -0.597  0.00  0.00    -0.301 N 
ATOM     13  C   UNL     1       2.394  -0.741   0.009  0.00  0.00    +0.185 A 
ATOM     14  N   UNL     1       2.409  -0.118   1.164  0.00  0.00    -0.127 NA
ATOM     15  N   UNL     1       3.532   0.486   1.322  0.00  0.00    -0.122 NA
BRANCH  12  16
ATOM     16  C   UNL     1       4.054  -0.982  -1.905  0.00  0.00    +0.122 C 
ATOM     17  C   UNL     1       3.659   0.025  -2.986  0.00  0.00    +0.027 C 
ENDBRANCH  12  16
BRANCH  11  18
ATOM     18  S   UNL     1       5.932   0.917   0.044  0.00  0.00    -0.086 S 
BRANCH  18  20
ATOM     19  C   UNL     1       7.520   2.490   1.615  0.00  0.00    +0.016 C 
ATOM     20  C   UNL     1       6.137   1.836   1.590  0.00  0.00    +0.074 C 
ENDBRANCH  18  20
ENDBRANCH  11  18
ENDBRANCH   1  13
BRANCH   4  21
ATOM     21  S   UNL     1      -2.917  -0.453   2.112  0.00  0.00    +0.061 S 
ATOM     22  O   UNL     1      -2.133   0.416   2.919  0.00  0.00    -0.153 OA
ATOM     23  O   UNL     1      -4.058  -1.176   2.552  0.00  0.00    -0.153 OA
BRANCH  21  24
ATOM     24  C   UNL     1      -3.463   0.522   0.750  0.00  0.00    +0.107 A 
ATOM     25  C   UNL     1      -2.769   1.663   0.394  0.00  0.00    +0.048 A 
ATOM     26  C   UNL     1      -3.195   2.425  -0.679  0.00  0.00    +0.046 A 
ATOM     27 CL   UNL     1      -2.319   3.854  -1.131  0.00  0.00    -0.083 Cl
ATOM     28  C   UNL     1      -4.323   2.052  -1.388  0.00  0.00    -0.032 A 
ATOM     29  C   UNL     1      -4.791   2.885  -2.553  0.00  0.00    +0.045 C 
ATOM     30  C   UNL     1      -5.020   0.914  -1.027  0.00  0.00    +0.007 A 
ATOM     31  C   UNL     1      -4.590   0.149   0.042  0.00  0.00    +0.029 A 
ENDBRANCH  21  24
ENDBRANCH   4  21
TORSDOF 6
