REMARK  Name = m68
REMARK  8 active torsions:
REMARK  status: ('A' for Active; 'I' for Inactive)
REMARK    1  A    between atoms: C_1  and  O_2
REMARK    2  A    between atoms: O_2  and  C_3
REMARK    3  A    between atoms: C_3  and  C_5
REMARK    4  A    between atoms: C_7  and  C_8
REMARK    5  A    between atoms: N_16  and  C_17
REMARK    6  A    between atoms: C_17  and  C_18
REMARK    7  A    between atoms: C_25  and  C_26
REMARK    8  A    between atoms: N_29  and  C_30
REMARK                            x       y       z     vdW  Elec       q    Type
REMARK                         _______ _______ _______ _____ _____    ______ ____
ROOT
ATOM      1  C   UNL     1       1.848   2.153   0.066  0.00  0.00    +0.077 A 
ATOM      2  C   UNL     1       1.170   0.946   0.300  0.00  0.00    +0.096 A 
ATOM      3  C   UNL     1      -0.267   0.909   0.622  0.00  0.00    +0.267 A 
ATOM      4  N   UNL     1      -0.846  -0.296   0.822  0.00  0.00    -0.251 N 
ATOM      5  C   UNL     1      -0.134  -1.430   0.731  0.00  0.00    +0.338 A 
ATOM      6  N   UNL     1       1.179  -1.447   0.447  0.00  0.00    -0.246 N 
ATOM      7  O   UNL     1      -0.701  -2.488   0.920  0.00  0.00    -0.246 OA
ATOM      8  O   UNL     1      -0.915   1.935   0.704  0.00  0.00    -0.267 OA
ATOM      9  C   UNL     1       1.871  -0.269   0.217  0.00  0.00    +0.155 A 
ATOM     10  N   UNL     1       3.162  -0.272  -0.069  0.00  0.00    -0.233 NA
ATOM     11  C   UNL     1       3.828   0.843  -0.289  0.00  0.00    +0.048 A 
ATOM     12  C   UNL     1       3.211   2.082  -0.232  0.00  0.00    +0.039 A 
ENDROOT
BRANCH   6  13
ATOM     13  C   UNL     1       1.854  -2.672   0.369  0.00  0.00    +0.053 A 
ATOM     14  C   UNL     1       3.138  -2.793   0.884  0.00  0.00    +0.026 A 
ATOM     15  C   UNL     1       3.799  -4.003   0.812  0.00  0.00    +0.002 A 
ATOM     16  C   UNL     1       3.188  -5.092   0.216  0.00  0.00    +0.000 A 
ATOM     17  C   UNL     1       1.911  -4.973  -0.302  0.00  0.00    +0.002 A 
ATOM     18  C   UNL     1       1.243  -3.767  -0.227  0.00  0.00    +0.026 A 
ENDBRANCH   6  13
BRANCH  11  19
ATOM     19  C   UNL     1       5.298   0.769  -0.611  0.00  0.00    +0.038 C 
ATOM     20  C   UNL     1       5.950   2.009  -1.228  0.00  0.00    +0.010 C 
ATOM     21  C   UNL     1       5.699   0.768  -2.087  0.00  0.00    +0.010 C 
ENDBRANCH  11  19
BRANCH   1  22
ATOM     22  C   UNL     1       1.145   3.454   0.139  0.00  0.00    +0.340 C 
ATOM     23  O   UNL     1       0.128   3.632  -0.500  0.00  0.00    -0.245 OA
BRANCH  22  25
ATOM     24  C   UNL     1       0.945   5.718   0.984  0.00  0.00    +0.280 C 
ATOM     25  O   UNL     1       1.634   4.441   0.913  0.00  0.00    -0.464 OA
ENDBRANCH  22  25
ENDBRANCH   1  22
BRANCH   4  26
ATOM     26  C   UNL     1      -2.274  -0.365   1.142  0.00  0.00    +0.225 C 
BRANCH  26  27
ATOM     27  C   UNL     1      -3.070  -0.472  -0.133  0.00  0.00    +0.236 C 
ATOM     28  N   UNL     1      -4.415  -0.549  -0.083  0.00  0.00    -0.297 N 
ATOM     29  C   UNL     1      -5.198  -0.771  -1.306  0.00  0.00    +0.073 C 
ATOM     30  C   UNL     1      -4.274  -0.722  -2.524  0.00  0.00    +0.028 C 
ATOM     31  C   UNL     1      -6.258   0.322  -1.423  0.00  0.00    +0.022 C 
ATOM     32  C   UNL     1      -7.093   0.360  -0.141  0.00  0.00    +0.003 C 
ATOM     33  C   UNL     1      -6.188   0.689   1.049  0.00  0.00    +0.019 C 
ATOM     34  C   UNL     1      -5.126  -0.406   1.195  0.00  0.00    +0.108 C 
ATOM     35  O   UNL     1      -2.501  -0.488  -1.204  0.00  0.00    -0.274 OA
ENDBRANCH  26  27
ENDBRANCH   4  26
TORSDOF 6
