REMARK  Name = m69
REMARK  9 active torsions:
REMARK  status: ('A' for Active; 'I' for Inactive)
REMARK    1  A    between atoms: C_1  and  C_2
REMARK    2  A    between atoms: C_2  and  S_3
REMARK    3  A    between atoms: S_3  and  C_4
REMARK    4  A    between atoms: C_7  and  C_8
REMARK    5  A    between atoms: N_10  and  C_11
REMARK    6  A    between atoms: N_15  and  S_16
REMARK    7  A    between atoms: S_16  and  C_19
REMARK    8  A    between atoms: N_29  and  C_30
REMARK    9  A    between atoms: C_30  and  C_31
REMARK                            x       y       z     vdW  Elec       q    Type
REMARK                         _______ _______ _______ _____ _____    ______ ____
ROOT
ATOM      1  C   UNL     1       1.330  -1.544  -0.567  0.00  0.00    +0.134 A 
ATOM      2  C   UNL     1       0.103  -1.813   0.060  0.00  0.00    +0.020 A 
ATOM      3  C   UNL     1      -0.364  -1.358   1.421  0.00  0.00    +0.148 C 
ATOM      4  N   UNL     1      -1.806  -1.654   1.510  0.00  0.00    -0.172 NA
ATOM      5  C   UNL     1      -2.281  -2.961   1.031  0.00  0.00    +0.116 C 
ATOM      6  C   UNL     1      -2.032  -3.068  -0.477  0.00  0.00    +0.072 C 
ATOM      7  C   UNL     1      -0.639  -2.576  -0.779  0.00  0.00    +0.045 A 
ATOM      8  N   UNL     1       0.089  -2.798  -1.890  0.00  0.00    -0.270 N 
ATOM      9  C   UNL     1      -0.333  -3.586  -3.050  0.00  0.00    +0.172 C 
ATOM     10  N   UNL     1       1.320  -2.143  -1.743  0.00  0.00    -0.168 NA
ENDROOT
BRANCH   1  13
ATOM     11  C   UNL     1       4.338   0.300   0.272  0.00  0.00    +0.192 A 
ATOM     12  N   UNL     1       3.642  -0.470  -0.615  0.00  0.00    -0.301 N 
ATOM     13  C   UNL     1       2.437  -0.738  -0.007  0.00  0.00    +0.185 A 
ATOM     14  N   UNL     1       2.453  -0.140   1.161  0.00  0.00    -0.127 NA
ATOM     15  N   UNL     1       3.572   0.471   1.326  0.00  0.00    -0.122 NA
BRANCH  12  16
ATOM     16  C   UNL     1       4.088  -0.923  -1.935  0.00  0.00    +0.122 C 
ATOM     17  C   UNL     1       3.677   0.103  -2.992  0.00  0.00    +0.027 C 
ENDBRANCH  12  16
BRANCH  11  18
ATOM     18  S   UNL     1       5.960   0.951   0.043  0.00  0.00    -0.086 S 
BRANCH  18  20
ATOM     19  C   UNL     1       7.543   2.504   1.638  0.00  0.00    +0.016 C 
ATOM     20  C   UNL     1       6.166   1.838   1.607  0.00  0.00    +0.074 C 
ENDBRANCH  18  20
ENDBRANCH  11  18
ENDBRANCH   1  13
BRANCH   4  21
ATOM     21  S   UNL     1      -2.864  -0.543   2.133  0.00  0.00    +0.061 S 
ATOM     22  O   UNL     1      -2.083   0.316   2.953  0.00  0.00    -0.153 OA
ATOM     23  O   UNL     1      -3.996  -1.286   2.563  0.00  0.00    -0.153 OA
BRANCH  21  24
ATOM     24  C   UNL     1      -3.427   0.456   0.795  0.00  0.00    +0.107 A 
ATOM     25  C   UNL     1      -2.744   1.610   0.459  0.00  0.00    +0.051 A 
ATOM     26  C   UNL     1      -3.182   2.391  -0.595  0.00  0.00    +0.078 A 
ATOM     27 CL   UNL     1      -2.320   3.837  -1.021  0.00  0.00    -0.081 Cl
ATOM     28  C   UNL     1      -4.312   2.023  -1.306  0.00  0.00    +0.142 A 
ATOM     29  F   UNL     1      -4.745   2.788  -2.332  0.00  0.00    -0.204 F 
ATOM     30  C   UNL     1      -4.998   0.870  -0.965  0.00  0.00    +0.042 A 
ATOM     31  C   UNL     1      -4.555   0.087   0.085  0.00  0.00    +0.031 A 
ENDBRANCH  21  24
ENDBRANCH   4  21
TORSDOF 6
