REMARK  Name = m71
REMARK  9 active torsions:
REMARK  status: ('A' for Active; 'I' for Inactive)
REMARK    1  A    between atoms: C_1  and  C_2
REMARK    2  A    between atoms: C_7  and  N_8
REMARK    3  A    between atoms: N_8  and  S_9
REMARK    4  A    between atoms: S_9  and  C_12
REMARK    5  A    between atoms: C_14  and  C_15
REMARK    6  A    between atoms: C_17  and  C_18
REMARK    7  A    between atoms: C_19  and  C_20
REMARK    8  A    between atoms: N_28  and  C_29
REMARK    9  A    between atoms: C_30  and  C_31
REMARK                            x       y       z     vdW  Elec       q    Type
REMARK                         _______ _______ _______ _____ _____    ______ ____
ROOT
ATOM      1  C   UNL     1       2.207   0.953  -0.906  0.00  0.00    +0.130 A 
ATOM      2  C   UNL     1       2.236   2.107  -0.200  0.00  0.00    +0.043 A 
ATOM      3  C   UNL     1       3.453   2.964   0.034  0.00  0.00    +0.065 C 
ATOM      4  N   UNL     1       0.981   2.368   0.255  0.00  0.00    -0.344 N 
ATOM      5  C   UNL     1       0.587   3.528   1.058  0.00  0.00    +0.149 C 
ATOM      6  C   UNL     1       0.145   1.359  -0.161  0.00  0.00    +0.076 A 
ATOM      7  C   UNL     1       0.892   0.471  -0.884  0.00  0.00    +0.059 A 
ENDROOT
BRANCH   6   8
ATOM      8  C   UNL     1      -1.293   1.254   0.121  0.00  0.00    +0.126 A 
ATOM      9  S   UNL     1      -2.454  -0.010  -0.381  0.00  0.00    -0.061 S 
ATOM     10  C   UNL     1      -3.898   0.694   0.405  0.00  0.00    +0.097 A 
ATOM     11  C   UNL     1      -3.348   1.837   0.972  0.00  0.00    +0.058 A 
ATOM     12  C   UNL     1      -4.212   2.788   1.761  0.00  0.00    +0.067 C 
ATOM     13  N   UNL     1      -2.078   2.078   0.814  0.00  0.00    -0.242 NA
BRANCH  10  14
ATOM     14  C   UNL     1      -5.277   0.204   0.437  0.00  0.00    +0.255 C 
ATOM     15  N   UNL     1      -5.599  -0.946  -0.188  0.00  0.00    -0.297 N 
ATOM     16  C   UNL     1      -4.667  -1.803  -0.943  0.00  0.00    +0.108 C 
ATOM     17  C   UNL     1      -5.314  -3.212  -0.911  0.00  0.00    +0.020 C 
ATOM     18  C   UNL     1      -6.821  -2.864  -1.036  0.00  0.00    +0.020 C 
ATOM     19  C   UNL     1      -6.939  -1.550  -0.236  0.00  0.00    +0.108 C 
ATOM     20  O   UNL     1      -6.134   0.836   1.029  0.00  0.00    -0.269 OA
ENDBRANCH  10  14
ENDBRANCH   6   8
BRANCH   1  21
ATOM     21  S   UNL     1       3.580   0.189  -1.703  0.00  0.00    +0.075 S 
ATOM     22  O   UNL     1       3.085  -1.030  -2.241  0.00  0.00    -0.150 OA
ATOM     23  O   UNL     1       4.216   1.218  -2.448  0.00  0.00    -0.150 OA
BRANCH  21  24
ATOM     24  N   UNL     1       4.659  -0.246  -0.524  0.00  0.00    -0.199 N 
ATOM     25  H   UNL     1       5.538   0.164  -0.496  0.00  0.00    +0.175 HD
BRANCH  24  28
ATOM     26  C   UNL     1       6.660  -1.105   1.307  0.00  0.00    +0.047 C 
ATOM     27  C   UNL     1       5.254  -1.647   1.337  0.00  0.00    -0.009 A 
ATOM     28  C   UNL     1       4.305  -1.197   0.425  0.00  0.00    +0.141 A 
ATOM     29  N   UNL     1       3.070  -1.675   0.446  0.00  0.00    -0.239 NA
ATOM     30  C   UNL     1       2.693  -2.579   1.331  0.00  0.00    +0.113 A 
ATOM     31  C   UNL     1       3.582  -3.066   2.269  0.00  0.00    +0.020 A 
ATOM     32  C   UNL     1       4.888  -2.595   2.277  0.00  0.00    +0.008 A 
ENDBRANCH  24  28
ENDBRANCH  21  24
ENDBRANCH   1  21
TORSDOF 5
