REMARK  Name = m72
REMARK  11 active torsions:
REMARK  status: ('A' for Active; 'I' for Inactive)
REMARK    1  A    between atoms: C_1  and  C_2
REMARK    2  A    between atoms: C_2  and  S_3
REMARK    3  A    between atoms: S_3  and  C_4
REMARK    4  A    between atoms: C_7  and  C_8
REMARK    5  A    between atoms: N_10  and  C_11
REMARK    6  A    between atoms: N_15  and  S_16
REMARK    7  A    between atoms: S_16  and  C_19
REMARK    8  A    between atoms: C_21  and  C_22
REMARK    9  A    between atoms: C_24  and  C_25
REMARK   10  A    between atoms: N_29  and  C_30
REMARK   11  A    between atoms: C_30  and  C_31
REMARK                            x       y       z     vdW  Elec       q    Type
REMARK                         _______ _______ _______ _____ _____    ______ ____
ROOT
ATOM      1  C   UNL     1       1.143  -1.501   0.120  0.00  0.00    +0.134 A 
ATOM      2  C   UNL     1      -0.110  -1.353   0.735  0.00  0.00    +0.020 A 
ATOM      3  C   UNL     1      -0.561  -0.260   1.674  0.00  0.00    +0.148 C 
ATOM      4  N   UNL     1      -2.022  -0.386   1.822  0.00  0.00    -0.172 NA
ATOM      5  C   UNL     1      -2.590  -1.728   2.020  0.00  0.00    +0.116 C 
ATOM      6  C   UNL     1      -2.328  -2.578   0.773  0.00  0.00    +0.072 C 
ATOM      7  C   UNL     1      -0.896  -2.383   0.340  0.00  0.00    +0.045 A 
ATOM      8  N   UNL     1      -0.172  -3.166  -0.481  0.00  0.00    -0.270 N 
ATOM      9  C   UNL     1      -0.636  -4.396  -1.127  0.00  0.00    +0.172 C 
ATOM     10  N   UNL     1       1.104  -2.599  -0.611  0.00  0.00    -0.168 NA
ENDROOT
BRANCH   1  13
ATOM     11  C   UNL     1       4.273   0.332   0.102  0.00  0.00    +0.192 A 
ATOM     12  N   UNL     1       3.532  -0.732  -0.329  0.00  0.00    -0.301 N 
ATOM     13  C   UNL     1       2.301  -0.593   0.270  0.00  0.00    +0.185 A 
ATOM     14  N   UNL     1       2.347   0.500   0.995  0.00  0.00    -0.127 NA
ATOM     15  N   UNL     1       3.507   1.044   0.897  0.00  0.00    -0.122 NA
BRANCH  12  16
ATOM     16  C   UNL     1       3.961  -1.801  -1.233  0.00  0.00    +0.122 C 
ATOM     17  C   UNL     1       3.647  -1.405  -2.677  0.00  0.00    +0.027 C 
ENDBRANCH  12  16
BRANCH  11  18
ATOM     18  S   UNL     1       5.944   0.686  -0.333  0.00  0.00    -0.086 S 
BRANCH  18  20
ATOM     19  C   UNL     1       7.619   2.724   0.376  0.00  0.00    +0.016 C 
ATOM     20  C   UNL     1       6.195   2.214   0.605  0.00  0.00    +0.074 C 
ENDBRANCH  18  20
ENDBRANCH  11  18
ENDBRANCH   1  13
BRANCH   4  21
ATOM     21  S   UNL     1      -2.999   0.950   1.767  0.00  0.00    +0.061 S 
ATOM     22  O   UNL     1      -2.167   2.051   2.101  0.00  0.00    -0.153 OA
ATOM     23  O   UNL     1      -4.192   0.584   2.447  0.00  0.00    -0.153 OA
BRANCH  21  24
ATOM     24  C   UNL     1      -3.463   1.193   0.084  0.00  0.00    +0.106 A 
ATOM     25  C   UNL     1      -2.688   1.989  -0.738  0.00  0.00    +0.032 A 
ATOM     26  C   UNL     1      -3.050   2.176  -2.059  0.00  0.00    -0.048 A 
ATOM     27  C   UNL     1      -2.202   3.039  -2.958  0.00  0.00    +0.044 C 
ATOM     28  C   UNL     1      -4.192   1.576  -2.555  0.00  0.00    +0.006 A 
ATOM     29  C   UNL     1      -4.970   0.784  -1.731  0.00  0.00    -0.048 A 
ATOM     30  C   UNL     1      -6.215   0.129  -2.272  0.00  0.00    +0.044 C 
ATOM     31  C   UNL     1      -4.606   0.593  -0.411  0.00  0.00    +0.032 A 
ENDBRANCH  21  24
ENDBRANCH   4  21
TORSDOF 6
