REMARK  Name = m73
REMARK  13 active torsions:
REMARK  status: ('A' for Active; 'I' for Inactive)
REMARK    1  A    between atoms: C_1  and  C_2
REMARK    2  A    between atoms: C_2  and  O_3
REMARK    3  A    between atoms: O_3  and  C_4
REMARK    4  A    between atoms: C_4  and  C_6
REMARK    5  A    between atoms: C_8  and  C_9
REMARK    6  A    between atoms: N_15  and  C_16
REMARK    7  A    between atoms: C_16  and  C_17
REMARK    8  A    between atoms: C_19  and  C_20
REMARK    9  A    between atoms: C_23  and  C_24
REMARK   10  A    between atoms: C_24  and  C_25
REMARK   11  A    between atoms: C_24  and  C_26
REMARK   12  A    between atoms: C_30  and  C_31
REMARK   13  A    between atoms: N_34  and  C_35
REMARK                            x       y       z     vdW  Elec       q    Type
REMARK                         _______ _______ _______ _____ _____    ______ ____
ROOT
ATOM      1  C   UNL     1       4.099  -0.304  -0.720  0.00  0.00    +0.077 A 
ATOM      2  C   UNL     1       3.009  -0.742   0.048  0.00  0.00    +0.096 A 
ATOM      3  C   UNL     1       2.151   0.198   0.790  0.00  0.00    +0.267 A 
ATOM      4  N   UNL     1       1.115  -0.307   1.497  0.00  0.00    -0.254 N 
ATOM      5  C   UNL     1       0.872  -1.627   1.524  0.00  0.00    +0.334 A 
ATOM      6  N   UNL     1       1.629  -2.522   0.868  0.00  0.00    -0.281 N 
ATOM      7  C   UNL     1       1.297  -3.947   0.948  0.00  0.00    +0.155 C 
ATOM      8  O   UNL     1      -0.072  -2.030   2.174  0.00  0.00    -0.246 OA
ATOM      9  O   UNL     1       2.368   1.394   0.767  0.00  0.00    -0.267 OA
ATOM     10  C   UNL     1       2.712  -2.114   0.109  0.00  0.00    +0.151 A 
ATOM     11  N   UNL     1       3.462  -2.986  -0.545  0.00  0.00    -0.234 NA
ATOM     12  C   UNL     1       4.495  -2.607  -1.270  0.00  0.00    +0.041 A 
ATOM     13  C   UNL     1       5.310  -3.650  -1.990  0.00  0.00    +0.065 C 
ATOM     14  C   UNL     1       4.852  -1.273  -1.387  0.00  0.00    +0.039 A 
ENDROOT
BRANCH   1  15
ATOM     15  C   UNL     1       4.443   1.134  -0.815  0.00  0.00    +0.340 C 
ATOM     16  O   UNL     1       3.594   1.941  -1.135  0.00  0.00    -0.245 OA
BRANCH  15  17
ATOM     17  O   UNL     1       5.697   1.545  -0.546  0.00  0.00    -0.461 OA
BRANCH  17  19
ATOM     18  C   UNL     1       7.509   3.151  -0.287  0.00  0.00    +0.048 C 
ATOM     19  C   UNL     1       6.034   2.955  -0.639  0.00  0.00    +0.229 C 
ENDBRANCH  17  19
ENDBRANCH  15  17
ENDBRANCH   1  15
BRANCH   4  20
ATOM     20  C   UNL     1       0.243   0.602   2.246  0.00  0.00    +0.188 C 
BRANCH  20  21
ATOM     21  C   UNL     1      -0.896   1.045   1.364  0.00  0.00    +0.103 A 
ATOM     22  C   UNL     1      -0.906   2.127   0.566  0.00  0.00    +0.127 A 
ATOM     23  C   UNL     1       0.219   3.114   0.385  0.00  0.00    +0.088 C 
ATOM     24  O   UNL     1      -2.105   2.161  -0.048  0.00  0.00    -0.440 OA
ATOM     25  C   UNL     1      -2.817   1.107   0.387  0.00  0.00    +0.228 A 
ATOM     26  N   UNL     1      -2.084   0.432   1.241  0.00  0.00    -0.212 NA
BRANCH  25  27
ATOM     27  C   UNL     1      -4.194   0.764  -0.028  0.00  0.00    +0.037 A 
ATOM     28  C   UNL     1      -4.823  -0.366   0.496  0.00  0.00    +0.013 A 
ATOM     29  C   UNL     1      -6.110  -0.677   0.109  0.00  0.00    +0.004 A 
ATOM     30  C   UNL     1      -6.773   0.123  -0.805  0.00  0.00    -0.045 A 
ATOM     31  C   UNL     1      -6.153   1.242  -1.332  0.00  0.00    +0.004 A 
ATOM     32  C   UNL     1      -4.869   1.567  -0.949  0.00  0.00    +0.013 A 
BRANCH  30  33
ATOM     33  C   UNL     1      -8.177  -0.226  -1.228  0.00  0.00    +0.013 C 
ATOM     34  C   UNL     1      -9.093  -0.229  -0.002  0.00  0.00    +0.012 C 
ATOM     35  C   UNL     1      -8.185  -1.613  -1.873  0.00  0.00    +0.012 C 
ENDBRANCH  30  33
ENDBRANCH  25  27
ENDBRANCH  20  21
ENDBRANCH   4  20
TORSDOF 7
