REMARK  Name = m74
REMARK  11 active torsions:
REMARK  status: ('A' for Active; 'I' for Inactive)
REMARK    1  A    between atoms: C_1  and  C_2
REMARK    2  A    between atoms: C_2  and  S_3
REMARK    3  A    between atoms: S_3  and  C_4
REMARK    4  A    between atoms: C_7  and  C_8
REMARK    5  A    between atoms: N_10  and  C_11
REMARK    6  A    between atoms: N_15  and  S_16
REMARK    7  A    between atoms: S_16  and  C_19
REMARK    8  A    between atoms: C_20  and  C_21
REMARK    9  A    between atoms: C_25  and  C_26
REMARK   10  A    between atoms: N_29  and  C_30
REMARK   11  A    between atoms: C_30  and  C_31
REMARK                            x       y       z     vdW  Elec       q    Type
REMARK                         _______ _______ _______ _____ _____    ______ ____
ROOT
ATOM      1  C   UNL     1       0.978  -1.436   0.299  0.00  0.00    +0.134 A 
ATOM      2  C   UNL     1      -0.314  -1.152   0.767  0.00  0.00    +0.020 A 
ATOM      3  C   UNL     1      -0.809   0.120   1.413  0.00  0.00    +0.148 C 
ATOM      4  N   UNL     1      -2.280   0.038   1.468  0.00  0.00    -0.172 NA
ATOM      5  C   UNL     1      -2.894  -1.226   1.900  0.00  0.00    +0.116 C 
ATOM      6  C   UNL     1      -2.558  -2.325   0.886  0.00  0.00    +0.072 C 
ATOM      7  C   UNL     1      -1.093  -2.236   0.538  0.00  0.00    +0.045 A 
ATOM      8  N   UNL     1      -0.327  -3.182  -0.038  0.00  0.00    -0.270 N 
ATOM      9  C   UNL     1      -0.770  -4.518  -0.444  0.00  0.00    +0.172 C 
ATOM     10  N   UNL     1       0.969  -2.665  -0.184  0.00  0.00    -0.168 NA
ENDROOT
BRANCH   1  13
ATOM     11  C   UNL     1       4.143   0.328   0.142  0.00  0.00    +0.192 A 
ATOM     12  N   UNL     1       3.412  -0.797  -0.111  0.00  0.00    -0.301 N 
ATOM     13  C   UNL     1       2.142  -0.525   0.345  0.00  0.00    +0.185 A 
ATOM     14  N   UNL     1       2.159   0.697   0.823  0.00  0.00    -0.127 NA
ATOM     15  N   UNL     1       3.335   1.199   0.704  0.00  0.00    -0.122 NA
BRANCH  12  16
ATOM     16  C   UNL     1       3.882  -2.038  -0.731  0.00  0.00    +0.122 C 
ATOM     17  C   UNL     1       3.690  -1.956  -2.247  0.00  0.00    +0.027 C 
ENDBRANCH  12  16
BRANCH  11  18
ATOM     18  S   UNL     1       5.850   0.570  -0.223  0.00  0.00    -0.086 S 
BRANCH  18  20
ATOM     19  C   UNL     1       7.515   2.700   0.169  0.00  0.00    +0.016 C 
ATOM     20  C   UNL     1       6.065   2.261   0.386  0.00  0.00    +0.074 C 
ENDBRANCH  18  20
ENDBRANCH  11  18
ENDBRANCH   1  13
BRANCH   4  21
ATOM     21  S   UNL     1      -3.218   1.338   1.053  0.00  0.00    +0.065 S 
ATOM     22  O   UNL     1      -2.388   2.480   1.211  0.00  0.00    -0.153 OA
ATOM     23  O   UNL     1      -4.468   1.134   1.698  0.00  0.00    -0.153 OA
BRANCH  21  24
ATOM     24  C   UNL     1      -3.547   1.221  -0.674  0.00  0.00    +0.148 A 
ATOM     25  C   UNL     1      -2.797   1.755  -1.665  0.00  0.00    +0.060 A 
ATOM     26  C   UNL     1      -1.530   2.552  -1.490  0.00  0.00    +0.067 C 
ATOM     27  N   UNL     1      -3.382   1.440  -2.840  0.00  0.00    -0.280 N 
ATOM     28  H   UNL     1      -3.063   1.689  -3.721  0.00  0.00    +0.189 HD
ATOM     29  N   UNL     1      -4.534   0.694  -2.561  0.00  0.00    -0.177 NA
ATOM     30  C   UNL     1      -4.632   0.563  -1.262  0.00  0.00    +0.086 A 
ATOM     31  C   UNL     1      -5.726  -0.169  -0.528  0.00  0.00    +0.069 C 
ENDBRANCH  21  24
ENDBRANCH   4  21
TORSDOF 6
