REMARK  Name = m75
REMARK  9 active torsions:
REMARK  status: ('A' for Active; 'I' for Inactive)
REMARK    1  A    between atoms: C_1  and  C_2
REMARK    2  A    between atoms: N_7  and  S_8
REMARK    3  A    between atoms: S_8  and  C_11
REMARK    4  A    between atoms: C_13  and  C_14
REMARK    5  A    between atoms: C_16  and  C_17
REMARK    6  A    between atoms: C_18  and  C_19
REMARK    7  A    between atoms: C_24  and  C_25
REMARK    8  A    between atoms: N_29  and  C_30
REMARK    9  A    between atoms: C_31  and  C_32
REMARK                            x       y       z     vdW  Elec       q    Type
REMARK                         _______ _______ _______ _____ _____    ______ ____
ROOT
ATOM      1  C   UNL     1       2.750   1.189  -0.821  0.00  0.00    +0.130 A 
ATOM      2  C   UNL     1       2.871   2.178   0.093  0.00  0.00    +0.043 A 
ATOM      3  C   UNL     1       4.157   2.857   0.489  0.00  0.00    +0.065 C 
ATOM      4  N   UNL     1       1.638   2.465   0.589  0.00  0.00    -0.344 N 
ATOM      5  C   UNL     1       1.337   3.481   1.601  0.00  0.00    +0.149 C 
ATOM      6  C   UNL     1       0.721   1.637  -0.014  0.00  0.00    +0.076 A 
ATOM      7  C   UNL     1       1.396   0.838  -0.894  0.00  0.00    +0.059 A 
ENDROOT
BRANCH   6   8
ATOM      8  C   UNL     1      -0.726   1.616   0.242  0.00  0.00    +0.126 A 
ATOM      9  S   UNL     1      -1.989   0.587  -0.495  0.00  0.00    -0.061 S 
ATOM     10  C   UNL     1      -3.377   1.259   0.411  0.00  0.00    +0.097 A 
ATOM     11  C   UNL     1      -2.735   2.216   1.188  0.00  0.00    +0.058 A 
ATOM     12  C   UNL     1      -3.522   3.075   2.144  0.00  0.00    +0.067 C 
ATOM     13  N   UNL     1      -1.445   2.362   1.079  0.00  0.00    -0.242 NA
BRANCH  10  14
ATOM     14  C   UNL     1      -4.796   0.905   0.347  0.00  0.00    +0.255 C 
ATOM     15  N   UNL     1      -5.191  -0.166  -0.371  0.00  0.00    -0.297 N 
ATOM     16  C   UNL     1      -6.576  -0.275  -0.851  0.00  0.00    +0.108 C 
ATOM     17  C   UNL     1      -7.156  -1.613  -0.397  0.00  0.00    +0.022 C 
ATOM     18  C   UNL     1      -6.238  -2.747  -0.860  0.00  0.00    -0.011 C 
ATOM     19  C   UNL     1      -6.833  -4.091  -0.433  0.00  0.00    +0.007 C 
ATOM     20  C   UNL     1      -4.855  -2.578  -0.226  0.00  0.00    +0.022 C 
ATOM     21  C   UNL     1      -4.248  -1.248  -0.682  0.00  0.00    +0.108 C 
ATOM     22  O   UNL     1      -5.619   1.577   0.941  0.00  0.00    -0.269 OA
ENDBRANCH  10  14
ENDBRANCH   6   8
BRANCH   1  23
ATOM     23  S   UNL     1       4.061   0.466  -1.750  0.00  0.00    +0.075 S 
ATOM     24  O   UNL     1       3.464  -0.566  -2.522  0.00  0.00    -0.150 OA
ATOM     25  O   UNL     1       4.811   1.555  -2.271  0.00  0.00    -0.150 OA
BRANCH  23  30
ATOM     26  C   UNL     1       5.887  -3.906   2.563  0.00  0.00    +0.044 C 
ATOM     27  C   UNL     1       4.973  -3.112   1.665  0.00  0.00    -0.046 A 
ATOM     28  C   UNL     1       5.461  -2.061   0.911  0.00  0.00    +0.048 A 
ATOM     29  C   UNL     1       4.587  -1.354   0.090  0.00  0.00    +0.138 A 
ATOM     30  N   UNL     1       5.065  -0.298  -0.677  0.00  0.00    -0.199 N 
ATOM     31  H   UNL     1       5.986  -0.009  -0.584  0.00  0.00    +0.175 HD
ATOM     32  N   UNL     1       3.304  -1.676   0.038  0.00  0.00    -0.239 NA
ATOM     33  C   UNL     1       2.810  -2.671   0.750  0.00  0.00    +0.113 A 
ATOM     34  C   UNL     1       3.621  -3.417   1.581  0.00  0.00    +0.023 A 
ENDBRANCH  23  30
ENDBRANCH   1  23
TORSDOF 4
