REMARK  Name = m76
REMARK  7 active torsions:
REMARK  status: ('A' for Active; 'I' for Inactive)
REMARK    1  A    between atoms: C_1  and  C_2
REMARK    2  A    between atoms: C_8  and  N_9
REMARK    3  A    between atoms: C_10  and  C_12
REMARK    4  A    between atoms: C_12  and  N_13
REMARK    5  A    between atoms: C_18  and  C_19
REMARK    6  A    between atoms: C_21  and  C_22
REMARK    7  A    between atoms: C_30  and  C_31
REMARK                            x       y       z     vdW  Elec       q    Type
REMARK                         _______ _______ _______ _____ _____    ______ ____
ROOT
ATOM      1  N   UNL     1       1.651  -1.875   0.470  0.00  0.00    -0.290 N 
ATOM      2  C   UNL     1       0.708  -1.084   1.016  0.00  0.00    +0.263 A 
ATOM      3  O   UNL     1       0.968  -0.367   1.967  0.00  0.00    -0.267 OA
ATOM      4  C   UNL     1      -0.650  -1.103   0.429  0.00  0.00    +0.076 A 
ATOM      5  C   UNL     1      -0.816  -1.982  -0.664  0.00  0.00    +0.116 A 
ATOM      6  S   UNL     1      -2.521  -1.764  -1.108  0.00  0.00    -0.063 S 
ATOM      7  C   UNL     1      -2.956  -0.552   0.127  0.00  0.00    +0.082 A 
ATOM      8  N   UNL     1       0.183  -2.726  -1.123  0.00  0.00    -0.230 NA
ATOM      9  C   UNL     1      -1.787  -0.380   0.806  0.00  0.00    -0.017 A 
ATOM     10  C   UNL     1      -1.719   0.586   1.961  0.00  0.00    +0.046 C 
ATOM     11  C   UNL     1       1.372  -2.681  -0.585  0.00  0.00    +0.203 A 
ENDROOT
BRANCH   7  12
ATOM     12  C   UNL     1      -4.253   0.098   0.356  0.00  0.00    +0.266 A 
ATOM     13  O   UNL     1      -4.538   1.004   1.306  0.00  0.00    -0.332 OA
ATOM     14  N   UNL     1      -5.699   1.343   1.217  0.00  0.00    -0.056 NA
ATOM     15  C   UNL     1      -6.287   0.707   0.236  0.00  0.00    +0.202 A 
ATOM     16  N   UNL     1      -5.367  -0.100  -0.331  0.00  0.00    -0.187 NA
BRANCH  15  17
ATOM     17  C   UNL     1      -7.706   0.849  -0.178  0.00  0.00    +0.025 A 
ATOM     18  C   UNL     1      -8.216   0.115  -1.252  0.00  0.00    +0.031 A 
ATOM     19  C   UNL     1      -9.543   0.273  -1.600  0.00  0.00    +0.111 A 
ATOM     20  N   UNL     1     -10.321   1.109  -0.941  0.00  0.00    -0.263 NA
ATOM     21  C   UNL     1      -9.877   1.825   0.074  0.00  0.00    +0.111 A 
ATOM     22  C   UNL     1      -8.565   1.724   0.491  0.00  0.00    +0.031 A 
ENDBRANCH  15  17
ENDBRANCH   7  12
BRANCH   1  23
ATOM     23  C   UNL     1       3.005  -1.870   1.030  0.00  0.00    +0.222 C 
BRANCH  23  26
ATOM     24  N   UNL     1       5.123  -0.641   0.680  0.00  0.00    -0.284 N 
ATOM     25  H   UNL     1       5.540  -1.234   1.324  0.00  0.00    +0.155 HD
ATOM     26  C   UNL     1       3.835  -0.826   0.328  0.00  0.00    +0.237 C 
ATOM     27  O   UNL     1       3.344  -0.153  -0.553  0.00  0.00    -0.274 OA
BRANCH  24  30
ATOM     28  C   UNL     1       7.956  -0.884   0.590  0.00  0.00    +0.047 C 
ATOM     29  C   UNL     1       7.243   0.331   0.054  0.00  0.00    -0.011 A 
ATOM     30  C   UNL     1       5.858   0.407   0.115  0.00  0.00    +0.038 A 
ATOM     31  C   UNL     1       5.205   1.531  -0.374  0.00  0.00    +0.023 A 
ATOM     32  C   UNL     1       5.933   2.564  -0.931  0.00  0.00    +0.003 A 
ATOM     33  C   UNL     1       7.312   2.484  -0.996  0.00  0.00    +0.020 A 
ATOM     34  C   UNL     1       7.967   1.369  -0.503  0.00  0.00    +0.046 A 
ATOM     35 CL   UNL     1       9.698   1.272  -0.587  0.00  0.00    -0.083 Cl
ENDBRANCH  24  30
ENDBRANCH  23  26
ENDBRANCH   1  23
TORSDOF 5
