REMARK  Name = m77
REMARK  4 active torsions:
REMARK  status: ('A' for Active; 'I' for Inactive)
REMARK    1  A    between atoms: C_2  and  C_3
REMARK    2  A    between atoms: C_3  and  S_4
REMARK    3  A    between atoms: S_4  and  C_5
REMARK    4  A    between atoms: C_14  and  N_15
REMARK                            x       y       z     vdW  Elec       q    Type
REMARK                         _______ _______ _______ _____ _____    ______ ____
ROOT
ATOM      1  C   UNL     1      -1.437   0.889   0.043  0.00  0.00    +0.115 A 
ATOM      2  C   UNL     1      -0.107   0.492   0.011  0.00  0.00    +0.072 A 
ATOM      3  S   UNL     1       0.717  -1.076  -0.039  0.00  0.00    -0.064 S 
ATOM      4  C   UNL     1       2.400  -0.509  -0.077  0.00  0.00    +0.113 A 
ATOM      5  C   UNL     1       2.296   0.891  -0.045  0.00  0.00    +0.037 A 
ATOM      6  C   UNL     1       3.512   1.623  -0.073  0.00  0.00    -0.029 A 
ATOM      7  C   UNL     1       3.418   3.124  -0.060  0.00  0.00    +0.036 C 
ATOM      8  C   UNL     1       4.757   3.741   0.341  0.00  0.00    +0.005 C 
ATOM      9  C   UNL     1       5.855   3.119  -0.530  0.00  0.00    +0.005 C 
ATOM     10  C   UNL     1       6.024   1.657  -0.122  0.00  0.00    +0.039 C 
ATOM     11  C   UNL     1       4.692   0.953  -0.113  0.00  0.00    -0.004 A 
ATOM     12  C   UNL     1       4.696  -0.449  -0.140  0.00  0.00    +0.126 A 
ATOM     13  N   UNL     1       3.561  -1.128  -0.121  0.00  0.00    -0.225 NA
ATOM     14  C   UNL     1       0.926   1.436  -0.003  0.00  0.00    +0.092 A 
ATOM     15  N   UNL     1       0.546   2.733   0.029  0.00  0.00    -0.234 NA
ATOM     16  C   UNL     1      -0.719   3.073   0.065  0.00  0.00    +0.223 A 
ATOM     17  N   UNL     1      -1.705   2.196   0.073  0.00  0.00    -0.228 NA
ENDROOT
BRANCH  12  18
ATOM     18  N   UNL     1       5.904  -1.131  -0.186  0.00  0.00    -0.311 N 
ATOM     19  C   UNL     1       6.154  -1.639   1.169  0.00  0.00    +0.134 C 
ATOM     20  C   UNL     1       7.383  -2.549   1.155  0.00  0.00    +0.178 C 
ATOM     21  O   UNL     1       7.133  -3.683   0.325  0.00  0.00    -0.377 OA
ATOM     22  C   UNL     1       6.933  -3.199  -1.002  0.00  0.00    +0.178 C 
ATOM     23  C   UNL     1       5.692  -2.305  -1.044  0.00  0.00    +0.134 C 
ENDBRANCH  12  18
BRANCH   1  24
ATOM     24  S   UNL     1      -2.736  -0.300   0.052  0.00  0.00    -0.095 S 
BRANCH  24  25
ATOM     25  C   UNL     1      -4.171   0.801   0.105  0.00  0.00    +0.172 C 
BRANCH  25  27
ATOM     26  O   UNL     1      -5.371  -1.230   0.097  0.00  0.00    -0.275 OA
ATOM     27  C   UNL     1      -5.435  -0.020   0.120  0.00  0.00    +0.228 C 
ATOM     28  N   UNL     1      -6.635   0.592   0.154  0.00  0.00    -0.270 N 
ATOM     29  H   UNL     1      -6.686   1.556   0.251  0.00  0.00    +0.156 HD
ATOM     30  C   UNL     1      -7.804  -0.161   0.048  0.00  0.00    +0.125 A 
ATOM     31  N   UNL     1      -7.732  -1.482   0.017  0.00  0.00    -0.240 NA
ATOM     32  C   UNL     1      -8.814  -2.231  -0.077  0.00  0.00    +0.113 A 
ATOM     33  C   UNL     1     -10.068  -1.658  -0.157  0.00  0.00    +0.020 A 
ATOM     34  C   UNL     1     -10.186  -0.275  -0.133  0.00  0.00    +0.005 A 
ATOM     35  C   UNL     1      -9.034   0.484  -0.029  0.00  0.00    +0.044 A 
ENDBRANCH  25  27
ENDBRANCH  24  25
ENDBRANCH   1  24
TORSDOF 4
