REMARK  Name = m78
REMARK  7 active torsions:
REMARK  status: ('A' for Active; 'I' for Inactive)
REMARK    1  A    between atoms: C_1  and  C_2
REMARK    2  A    between atoms: C_3  and  C_4
REMARK    3  A    between atoms: C_6  and  C_7
REMARK    4  A    between atoms: N_20  and  C_21
REMARK    5  A    between atoms: C_21  and  C_22
REMARK    6  A    between atoms: N_24  and  C_25
REMARK    7  A    between atoms: C_25  and  C_26
REMARK                            x       y       z     vdW  Elec       q    Type
REMARK                         _______ _______ _______ _____ _____    ______ ____
ROOT
ATOM      1  C   UNL     1       0.418   1.623  -1.238  0.00  0.00    +0.046 C 
ATOM      2  C   UNL     1       0.601   0.206  -0.760  0.00  0.00    -0.017 A 
ATOM      3  C   UNL     1      -0.496  -0.661  -0.704  0.00  0.00    +0.076 A 
ATOM      4  C   UNL     1      -0.222  -1.970  -0.247  0.00  0.00    +0.116 A 
ATOM      5  N   UNL     1      -1.172  -2.891  -0.150  0.00  0.00    -0.230 NA
ATOM      6  C   UNL     1      -2.409  -2.635  -0.477  0.00  0.00    +0.203 A 
ATOM      7  N   UNL     1      -2.792  -1.417  -0.934  0.00  0.00    -0.290 N 
ATOM      8  S   UNL     1       1.521  -1.928   0.089  0.00  0.00    -0.063 S 
ATOM      9  C   UNL     1      -1.907  -0.410  -1.071  0.00  0.00    +0.263 A 
ATOM     10  O   UNL     1      -2.261   0.681  -1.482  0.00  0.00    -0.267 OA
ATOM     11  C   UNL     1       1.833  -0.233  -0.377  0.00  0.00    +0.082 A 
ENDROOT
BRANCH  11  12
ATOM     12  C   UNL     1       3.102   0.505  -0.353  0.00  0.00    +0.266 A 
ATOM     13  O   UNL     1       3.292   1.784  -0.719  0.00  0.00    -0.332 OA
ATOM     14  N   UNL     1       4.457   2.086  -0.574  0.00  0.00    -0.056 NA
ATOM     15  C   UNL     1       5.140   1.066  -0.119  0.00  0.00    +0.204 A 
ATOM     16  N   UNL     1       4.280   0.038   0.029  0.00  0.00    -0.187 NA
BRANCH  15  17
ATOM     17  C   UNL     1       6.594   1.044   0.178  0.00  0.00    +0.041 A 
ATOM     18  C   UNL     1       7.191  -0.117   0.666  0.00  0.00    +0.052 A 
ATOM     19 CL   UNL     1       6.237  -1.545   0.920  0.00  0.00    -0.083 Cl
ATOM     20  C   UNL     1       8.546  -0.133   0.936  0.00  0.00    +0.021 A 
ATOM     21  C   UNL     1       9.306   1.004   0.734  0.00  0.00    +0.001 A 
ATOM     22  C   UNL     1       8.717   2.161   0.256  0.00  0.00    +0.001 A 
ATOM     23  C   UNL     1       7.366   2.186  -0.023  0.00  0.00    +0.013 A 
ENDBRANCH  15  17
ENDBRANCH  11  12
BRANCH   7  24
ATOM     24  C   UNL     1      -4.196  -1.191  -1.285  0.00  0.00    +0.221 C 
BRANCH  24  25
ATOM     25  C   UNL     1      -4.944  -0.698  -0.073  0.00  0.00    +0.233 C 
ATOM     26  N   UNL     1      -6.260  -0.422  -0.160  0.00  0.00    -0.311 N 
ATOM     27  H   UNL     1      -6.726  -0.541  -1.003  0.00  0.00    +0.149 HD
ATOM     28  O   UNL     1      -4.362  -0.550   0.980  0.00  0.00    -0.274 OA
BRANCH  26  29
ATOM     29  C   UNL     1      -6.987   0.057   1.018  0.00  0.00    +0.135 C 
BRANCH  29  30
ATOM     30  C   UNL     1      -8.454   0.293   0.651  0.00  0.00    +0.135 C 
ATOM     31  O   UNL     1      -8.548   1.312  -0.359  0.00  0.00    -0.375 OA
ATOM     32  C   UNL     1      -9.765   2.046  -0.106  0.00  0.00    +0.160 C 
ATOM     33  C   UNL     1      -9.800   2.166   1.439  0.00  0.00    +0.031 C 
ATOM     34  C   UNL     1      -9.228   0.798   1.884  0.00  0.00    +0.035 C 
ENDBRANCH  29  30
ENDBRANCH  26  29
ENDBRANCH  24  25
ENDBRANCH   7  24
TORSDOF 6
