REMARK  Name = m79
REMARK  11 active torsions:
REMARK  status: ('A' for Active; 'I' for Inactive)
REMARK    1  A    between atoms: C_1  and  C_2
REMARK    2  A    between atoms: C_2  and  S_3
REMARK    3  A    between atoms: S_3  and  C_4
REMARK    4  A    between atoms: C_7  and  C_8
REMARK    5  A    between atoms: N_10  and  C_11
REMARK    6  A    between atoms: N_15  and  S_16
REMARK    7  A    between atoms: S_16  and  C_19
REMARK    8  A    between atoms: C_20  and  C_21
REMARK    9  A    between atoms: N_23  and  C_24
REMARK   10  A    between atoms: C_25  and  C_26
REMARK   11  A    between atoms: N_29  and  C_30
REMARK                            x       y       z     vdW  Elec       q    Type
REMARK                         _______ _______ _______ _____ _____    ______ ____
ROOT
ATOM      1  C   UNL     1       1.190  -1.586  -0.095  0.00  0.00    +0.134 A 
ATOM      2  C   UNL     1      -0.073  -1.434   0.498  0.00  0.00    +0.020 A 
ATOM      3  C   UNL     1      -0.524  -0.361   1.460  0.00  0.00    +0.148 C 
ATOM      4  N   UNL     1      -1.990  -0.465   1.575  0.00  0.00    -0.172 NA
ATOM      5  C   UNL     1      -2.586  -1.801   1.719  0.00  0.00    +0.116 C 
ATOM      6  C   UNL     1      -2.313  -2.617   0.452  0.00  0.00    +0.072 C 
ATOM      7  C   UNL     1      -0.869  -2.436   0.055  0.00  0.00    +0.045 A 
ATOM      8  N   UNL     1      -0.142  -3.207  -0.775  0.00  0.00    -0.270 N 
ATOM      9  C   UNL     1      -0.615  -4.408  -1.468  0.00  0.00    +0.172 C 
ATOM     10  N   UNL     1       1.147  -2.660  -0.861  0.00  0.00    -0.168 NA
ENDROOT
BRANCH   1  14
ATOM     11  C   UNL     1       4.352   0.188   0.007  0.00  0.00    +0.192 A 
ATOM     12  N   UNL     1       3.601  -0.848  -0.471  0.00  0.00    -0.304 N 
ATOM     13  C   UNL     1       4.030  -1.898  -1.399  0.00  0.00    +0.153 C 
ATOM     14  C   UNL     1       2.361  -0.705   0.106  0.00  0.00    +0.185 A 
ATOM     15  N   UNL     1       2.411   0.365   0.866  0.00  0.00    -0.127 NA
ATOM     16  N   UNL     1       3.582   0.890   0.808  0.00  0.00    -0.122 NA
BRANCH  11  17
ATOM     17  S   UNL     1       6.038   0.524  -0.382  0.00  0.00    -0.086 S 
BRANCH  17  19
ATOM     18  C   UNL     1       7.734   2.507   0.424  0.00  0.00    +0.016 C 
ATOM     19  C   UNL     1       6.297   2.017   0.608  0.00  0.00    +0.074 C 
ENDBRANCH  17  19
ENDBRANCH  11  17
ENDBRANCH   1  14
BRANCH   4  20
ATOM     20  S   UNL     1      -2.941   0.890   1.540  0.00  0.00    +0.065 S 
ATOM     21  O   UNL     1      -2.096   1.965   1.925  0.00  0.00    -0.153 OA
ATOM     22  O   UNL     1      -4.154   0.526   2.184  0.00  0.00    -0.153 OA
BRANCH  20  23
ATOM     23  C   UNL     1      -3.365   1.193  -0.143  0.00  0.00    +0.148 A 
ATOM     24  C   UNL     1      -2.668   1.958  -1.014  0.00  0.00    +0.062 A 
ATOM     25  C   UNL     1      -1.388   2.698  -0.720  0.00  0.00    +0.067 C 
ATOM     26  N   UNL     1      -3.319   1.934  -2.196  0.00  0.00    -0.269 N 
ATOM     27  C   UNL     1      -2.909   2.626  -3.420  0.00  0.00    +0.172 C 
ATOM     28  N   UNL     1      -4.459   1.134  -2.043  0.00  0.00    -0.174 NA
ATOM     29  C   UNL     1      -4.486   0.691  -0.813  0.00  0.00    +0.086 A 
ATOM     30  C   UNL     1      -5.541  -0.206  -0.219  0.00  0.00    +0.069 C 
ENDBRANCH  20  23
ENDBRANCH   4  20
TORSDOF 5
