REMARK  Name = m80
REMARK  7 active torsions:
REMARK  status: ('A' for Active; 'I' for Inactive)
REMARK    1  A    between atoms: C_1  and  C_2
REMARK    2  A    between atoms: C_3  and  C_4
REMARK    3  A    between atoms: C_6  and  C_7
REMARK    4  A    between atoms: N_20  and  C_21
REMARK    5  A    between atoms: C_21  and  C_22
REMARK    6  A    between atoms: N_24  and  C_25
REMARK    7  A    between atoms: C_25  and  C_26
REMARK                            x       y       z     vdW  Elec       q    Type
REMARK                         _______ _______ _______ _____ _____    ______ ____
ROOT
ATOM      1  C   UNL     1       0.119   1.274  -1.419  0.00  0.00    +0.046 C 
ATOM      2  C   UNL     1       0.253  -0.080  -0.771  0.00  0.00    -0.017 A 
ATOM      3  C   UNL     1      -0.875  -0.890  -0.600  0.00  0.00    +0.076 A 
ATOM      4  C   UNL     1      -0.645  -2.142   0.012  0.00  0.00    +0.116 A 
ATOM      5  N   UNL     1      -1.628  -3.007   0.229  0.00  0.00    -0.230 NA
ATOM      6  C   UNL     1      -2.859  -2.745  -0.119  0.00  0.00    +0.203 A 
ATOM      7  N   UNL     1      -3.201  -1.578  -0.720  0.00  0.00    -0.290 N 
ATOM      8  S   UNL     1       1.101  -2.127   0.328  0.00  0.00    -0.063 S 
ATOM      9  C   UNL     1      -2.280  -0.630  -0.986  0.00  0.00    +0.263 A 
ATOM     10  O   UNL     1      -2.598   0.415  -1.525  0.00  0.00    -0.267 OA
ATOM     11  C   UNL     1       1.471  -0.516  -0.345  0.00  0.00    +0.082 A 
ENDROOT
BRANCH  11  12
ATOM     12  C   UNL     1       2.768   0.170  -0.421  0.00  0.00    +0.266 A 
ATOM     13  O   UNL     1       3.002   1.386  -0.944  0.00  0.00    -0.332 OA
ATOM     14  N   UNL     1       4.179   1.658  -0.844  0.00  0.00    -0.056 NA
ATOM     15  C   UNL     1       4.828   0.675  -0.272  0.00  0.00    +0.202 A 
ATOM     16  N   UNL     1       3.932  -0.293   0.007  0.00  0.00    -0.187 NA
BRANCH  15  17
ATOM     17  C   UNL     1       6.284   0.634   0.016  0.00  0.00    +0.023 A 
ATOM     18  C   UNL     1       6.841  -0.481   0.638  0.00  0.00    +0.013 A 
ATOM     19  C   UNL     1       8.196  -0.517   0.899  0.00  0.00    +0.021 A 
ATOM     20  C   UNL     1       8.998   0.557   0.554  0.00  0.00    +0.041 A 
ATOM     21 CL   UNL     1      10.701   0.509   0.892  0.00  0.00    -0.084 Cl
ATOM     22  C   UNL     1       8.448   1.669  -0.059  0.00  0.00    +0.021 A 
ATOM     23  C   UNL     1       7.095   1.712  -0.330  0.00  0.00    +0.013 A 
ENDBRANCH  15  17
ENDBRANCH  11  12
BRANCH   7  24
ATOM     24  C   UNL     1      -4.599  -1.342  -1.086  0.00  0.00    +0.221 C 
BRANCH  24  25
ATOM     25  C   UNL     1      -5.314  -0.675   0.060  0.00  0.00    +0.233 C 
ATOM     26  N   UNL     1      -6.620  -0.361  -0.051  0.00  0.00    -0.311 N 
ATOM     27  H   UNL     1      -7.100  -0.564  -0.869  0.00  0.00    +0.149 HD
ATOM     28  O   UNL     1      -4.714  -0.422   1.083  0.00  0.00    -0.274 OA
BRANCH  26  29
ATOM     29  C   UNL     1      -7.315   0.288   1.064  0.00  0.00    +0.135 C 
BRANCH  29  30
ATOM     30  C   UNL     1      -8.775   0.533   0.681  0.00  0.00    +0.135 C 
ATOM     31  O   UNL     1      -8.842   1.423  -0.446  0.00  0.00    -0.375 OA
ATOM     32  C   UNL     1     -10.028   2.230  -0.277  0.00  0.00    +0.160 C 
ATOM     33  C   UNL     1     -10.040   2.540   1.242  0.00  0.00    +0.031 C 
ATOM     34  C   UNL     1      -9.515   1.216   1.848  0.00  0.00    +0.035 C 
ENDBRANCH  29  30
ENDBRANCH  26  29
ENDBRANCH  24  25
ENDBRANCH   7  24
TORSDOF 6
