REMARK  Name = m81
REMARK  8 active torsions:
REMARK  status: ('A' for Active; 'I' for Inactive)
REMARK    1  A    between atoms: C_1  and  C_2
REMARK    2  A    between atoms: N_7  and  S_8
REMARK    3  A    between atoms: S_8  and  C_11
REMARK    4  A    between atoms: C_13  and  C_14
REMARK    5  A    between atoms: C_16  and  C_17
REMARK    6  A    between atoms: C_18  and  C_19
REMARK    7  A    between atoms: N_29  and  C_30
REMARK    8  A    between atoms: C_31  and  C_32
REMARK                            x       y       z     vdW  Elec       q    Type
REMARK                         _______ _______ _______ _____ _____    ______ ____
ROOT
ATOM      1  C   UNL     1       2.461   1.057  -1.014  0.00  0.00    +0.130 A 
ATOM      2  C   UNL     1       2.541   2.212  -0.314  0.00  0.00    +0.043 A 
ATOM      3  C   UNL     1       3.764   3.083  -0.190  0.00  0.00    +0.065 C 
ATOM      4  N   UNL     1       1.329   2.461   0.251  0.00  0.00    -0.344 N 
ATOM      5  C   UNL     1       0.996   3.618   1.086  0.00  0.00    +0.149 C 
ATOM      6  C   UNL     1       0.470   1.443  -0.088  0.00  0.00    +0.076 A 
ATOM      7  C   UNL     1       1.158   0.561  -0.875  0.00  0.00    +0.059 A 
ENDROOT
BRANCH   6   8
ATOM      8  C   UNL     1      -0.936   1.323   0.321  0.00  0.00    +0.126 A 
ATOM      9  S   UNL     1      -2.124   0.047  -0.075  0.00  0.00    -0.061 S 
ATOM     10  C   UNL     1      -3.499   0.736   0.837  0.00  0.00    +0.097 A 
ATOM     11  C   UNL     1      -2.914   1.886   1.352  0.00  0.00    +0.058 A 
ATOM     12  C   UNL     1      -3.713   2.828   2.214  0.00  0.00    +0.067 C 
ATOM     13  N   UNL     1      -1.665   2.140   1.081  0.00  0.00    -0.242 NA
BRANCH  10  14
ATOM     14  C   UNL     1      -4.865   0.232   0.992  0.00  0.00    +0.255 C 
ATOM     15  N   UNL     1      -5.191  -0.987   0.518  0.00  0.00    -0.297 N 
ATOM     16  C   UNL     1      -6.603  -1.415   0.579  0.00  0.00    +0.108 C 
ATOM     17  C   UNL     1      -7.045  -2.128  -0.716  0.00  0.00    +0.019 C 
ATOM     18  C   UNL     1      -6.466  -1.428  -1.920  0.00  0.00    +0.002 C 
ATOM     19  C   UNL     1      -5.130  -2.069  -2.284  0.00  0.00    +0.002 C 
ATOM     20  C   UNL     1      -3.980  -1.537  -1.536  0.00  0.00    +0.019 C 
ATOM     21  C   UNL     1      -4.144  -1.824  -0.023  0.00  0.00    +0.108 C 
ATOM     22  O   UNL     1      -5.706   0.913   1.549  0.00  0.00    -0.269 OA
ENDBRANCH  10  14
ENDBRANCH   6   8
BRANCH   1  23
ATOM     23  S   UNL     1       3.765   0.307  -1.931  0.00  0.00    +0.075 S 
ATOM     24  O   UNL     1       3.239  -0.921  -2.416  0.00  0.00    -0.150 OA
ATOM     25  O   UNL     1       4.317   1.341  -2.735  0.00  0.00    -0.150 OA
BRANCH  23  30
ATOM     26  C   UNL     1       6.535  -2.878   2.889  0.00  0.00    +0.044 C 
ATOM     27  C   UNL     1       5.447  -2.388   1.969  0.00  0.00    -0.046 A 
ATOM     28  C   UNL     1       5.721  -1.461   0.981  0.00  0.00    +0.048 A 
ATOM     29  C   UNL     1       4.691  -1.036   0.147  0.00  0.00    +0.138 A 
ATOM     30  N   UNL     1       4.953  -0.108  -0.854  0.00  0.00    -0.199 N 
ATOM     31  H   UNL     1       5.832   0.298  -0.921  0.00  0.00    +0.175 HD
ATOM     32  N   UNL     1       3.462  -1.504   0.302  0.00  0.00    -0.239 NA
ATOM     33  C   UNL     1       3.171  -2.386   1.240  0.00  0.00    +0.113 A 
ATOM     34  C   UNL     1       4.144  -2.854   2.098  0.00  0.00    +0.023 A 
ENDBRANCH  23  30
ENDBRANCH   1  23
TORSDOF 4
