REMARK  Name = m82
REMARK  14 active torsions:
REMARK  status: ('A' for Active; 'I' for Inactive)
REMARK    1  A    between atoms: C_1  and  C_2
REMARK    2  A    between atoms: C_2  and  O_3
REMARK    3  A    between atoms: O_3  and  C_4
REMARK    4  A    between atoms: C_4  and  C_6
REMARK    5  A    between atoms: C_8  and  C_9
REMARK    6  A    between atoms: N_15  and  C_16
REMARK    7  A    between atoms: C_16  and  C_17
REMARK    8  A    between atoms: C_19  and  C_20
REMARK    9  A    between atoms: C_23  and  O_24
REMARK   10  A    between atoms: O_24  and  C_25
REMARK   11  A    between atoms: C_25  and  C_26
REMARK   12  A    between atoms: C_25  and  C_27
REMARK   13  A    between atoms: C_31  and  C_32
REMARK   14  A    between atoms: N_35  and  C_36
REMARK                            x       y       z     vdW  Elec       q    Type
REMARK                         _______ _______ _______ _____ _____    ______ ____
ROOT
ATOM      1  C   UNL     1       4.284  -0.432  -0.820  0.00  0.00    +0.077 A 
ATOM      2  C   UNL     1       3.236  -0.778   0.048  0.00  0.00    +0.096 A 
ATOM      3  C   UNL     1       2.462   0.239   0.780  0.00  0.00    +0.267 A 
ATOM      4  N   UNL     1       1.463  -0.179   1.588  0.00  0.00    -0.254 N 
ATOM      5  C   UNL     1       1.181  -1.484   1.722  0.00  0.00    +0.334 A 
ATOM      6  N   UNL     1       1.861  -2.448   1.080  0.00  0.00    -0.281 N 
ATOM      7  C   UNL     1       1.490  -3.851   1.280  0.00  0.00    +0.155 C 
ATOM      8  O   UNL     1       0.272  -1.809   2.461  0.00  0.00    -0.246 OA
ATOM      9  O   UNL     1       2.716   1.422   0.660  0.00  0.00    -0.267 OA
ATOM     10  C   UNL     1       2.901  -2.132   0.223  0.00  0.00    +0.151 A 
ATOM     11  N   UNL     1       3.575  -3.071  -0.419  0.00  0.00    -0.234 NA
ATOM     12  C   UNL     1       4.567  -2.779  -1.237  0.00  0.00    +0.041 A 
ATOM     13  C   UNL     1       5.295  -3.898  -1.937  0.00  0.00    +0.065 C 
ATOM     14  C   UNL     1       4.957  -1.470  -1.469  0.00  0.00    +0.039 A 
ENDROOT
BRANCH   1  15
ATOM     15  C   UNL     1       4.665   0.982  -1.037  0.00  0.00    +0.340 C 
ATOM     16  O   UNL     1       3.826   1.794  -1.369  0.00  0.00    -0.245 OA
BRANCH  15  17
ATOM     17  O   UNL     1       5.944   1.369  -0.865  0.00  0.00    -0.461 OA
BRANCH  17  19
ATOM     18  C   UNL     1       7.816   2.925  -0.817  0.00  0.00    +0.048 C 
ATOM     19  C   UNL     1       6.318   2.756  -1.077  0.00  0.00    +0.229 C 
ENDBRANCH  17  19
ENDBRANCH  15  17
ENDBRANCH   1  15
BRANCH   4  20
ATOM     20  C   UNL     1       0.675   0.809   2.330  0.00  0.00    +0.188 C 
BRANCH  20  21
ATOM     21  C   UNL     1      -0.508   1.233   1.500  0.00  0.00    +0.103 A 
ATOM     22  C   UNL     1      -0.539   2.260   0.632  0.00  0.00    +0.127 A 
ATOM     23  C   UNL     1       0.601   3.191   0.308  0.00  0.00    +0.088 C 
ATOM     24  O   UNL     1      -1.777   2.297   0.098  0.00  0.00    -0.440 OA
ATOM     25  C   UNL     1      -2.490   1.300   0.651  0.00  0.00    +0.228 A 
ATOM     26  N   UNL     1      -1.721   0.658   1.499  0.00  0.00    -0.212 NA
BRANCH  25  27
ATOM     27  C   UNL     1      -3.902   0.982   0.355  0.00  0.00    +0.037 A 
ATOM     28  C   UNL     1      -4.528  -0.089   0.997  0.00  0.00    +0.017 A 
ATOM     29  C   UNL     1      -5.846  -0.379   0.722  0.00  0.00    +0.046 A 
ATOM     30  C   UNL     1      -6.550   0.384  -0.201  0.00  0.00    +0.121 A 
ATOM     31  C   UNL     1      -5.929   1.446  -0.847  0.00  0.00    +0.046 A 
ATOM     32  C   UNL     1      -4.612   1.746  -0.573  0.00  0.00    +0.017 A 
BRANCH  30  33
ATOM     33  O   UNL     1      -7.848   0.091  -0.474  0.00  0.00    -0.489 OA
BRANCH  33  34
ATOM     34  C   UNL     1      -7.841  -1.057  -1.326  0.00  0.00    +0.167 C 
ATOM     35  C   UNL     1      -7.741  -0.608  -2.785  0.00  0.00    +0.051 C 
ATOM     36  C   UNL     1      -9.135  -1.849  -1.124  0.00  0.00    +0.051 C 
ENDBRANCH  33  34
ENDBRANCH  30  33
ENDBRANCH  25  27
ENDBRANCH  20  21
ENDBRANCH   4  20
TORSDOF 8
