REMARK  Name = m83
REMARK  8 active torsions:
REMARK  status: ('A' for Active; 'I' for Inactive)
REMARK    1  A    between atoms: C_1  and  C_2
REMARK    2  A    between atoms: C_3  and  S_4
REMARK    3  A    between atoms: S_4  and  N_7
REMARK    4  A    between atoms: C_11  and  C_12
REMARK    5  A    between atoms: C_13  and  C_14
REMARK    6  A    between atoms: N_16  and  C_17
REMARK    7  A    between atoms: N_16  and  C_18
REMARK    8  A    between atoms: N_29  and  C_30
REMARK                            x       y       z     vdW  Elec       q    Type
REMARK                         _______ _______ _______ _____ _____    ______ ____
ROOT
ATOM      1  N   UNL     1      -1.350   1.464   0.363  0.00  0.00    -0.171 NA
ATOM      2  C   UNL     1      -0.100   0.776   0.727  0.00  0.00    +0.146 C 
ATOM      3  C   UNL     1       0.467   0.119  -0.542  0.00  0.00    +0.166 C 
ATOM      4  O   UNL     1       0.639   1.110  -1.554  0.00  0.00    -0.369 OA
ATOM      5  C   UNL     1      -0.658   1.536  -1.970  0.00  0.00    +0.178 C 
ATOM      6  C   UNL     1      -1.330   2.319  -0.837  0.00  0.00    +0.137 C 
ENDROOT
BRANCH   3   7
ATOM      7  C   UNL     1       1.798  -0.513  -0.227  0.00  0.00    +0.011 A 
ATOM      8  C   UNL     1       1.901  -1.908  -0.097  0.00  0.00    +0.014 A 
ATOM      9  C   UNL     1       3.197  -2.401   0.196  0.00  0.00    +0.109 A 
ATOM     10  N   UNL     1       3.452  -3.681   0.343  0.00  0.00    -0.248 NA
ATOM     11  C   UNL     1       2.501  -4.587   0.218  0.00  0.00    +0.112 A 
ATOM     12  C   UNL     1       1.200  -4.203  -0.073  0.00  0.00    +0.020 A 
ATOM     13  S   UNL     1       4.182  -0.925   0.284  0.00  0.00    -0.064 S 
ATOM     14  C   UNL     1       0.882  -2.887  -0.235  0.00  0.00    +0.012 A 
ATOM     15  C   UNL     1       2.900   0.266  -0.063  0.00  0.00    +0.082 A 
BRANCH  15  16
ATOM     16  C   UNL     1       3.008   1.729  -0.150  0.00  0.00    +0.253 C 
ATOM     17  N   UNL     1       4.219   2.319  -0.106  0.00  0.00    -0.303 N 
ATOM     18  C   UNL     1       5.433   1.499  -0.092  0.00  0.00    +0.132 C 
ATOM     19  C   UNL     1       4.321   3.780  -0.073  0.00  0.00    +0.132 C 
ATOM     20  O   UNL     1       2.004   2.408  -0.261  0.00  0.00    -0.269 OA
ENDBRANCH  15  16
ENDBRANCH   3   7
BRANCH   1  21
ATOM     21  S   UNL     1      -2.724   1.287   1.270  0.00  0.00    +0.064 S 
ATOM     22  O   UNL     1      -2.286   0.881   2.559  0.00  0.00    -0.153 OA
ATOM     23  O   UNL     1      -3.518   2.433   0.995  0.00  0.00    -0.153 OA
BRANCH  21  30
ATOM     24  C   UNL     1      -4.145   0.925  -1.669  0.00  0.00    +0.067 C 
ATOM     25  C   UNL     1      -4.175  -0.154  -0.617  0.00  0.00    +0.062 A 
ATOM     26  N   UNL     1      -4.769  -1.360  -0.730  0.00  0.00    -0.270 N 
ATOM     27  C   UNL     1      -5.495  -1.857  -1.902  0.00  0.00    +0.172 C 
ATOM     28  N   UNL     1      -4.561  -2.057   0.467  0.00  0.00    -0.178 NA
ATOM     29  C   UNL     1      -3.873  -1.290   1.273  0.00  0.00    +0.163 A 
ATOM     30  C   UNL     1      -3.617  -0.083   0.614  0.00  0.00    +0.146 A 
ENDBRANCH  21  30
ENDBRANCH   1  21
TORSDOF 4
