REMARK  Name = m84
REMARK  8 active torsions:
REMARK  status: ('A' for Active; 'I' for Inactive)
REMARK    1  A    between atoms: C_1  and  C_2
REMARK    2  A    between atoms: N_7  and  S_8
REMARK    3  A    between atoms: S_8  and  C_11
REMARK    4  A    between atoms: C_13  and  C_14
REMARK    5  A    between atoms: C_16  and  C_17
REMARK    6  A    between atoms: C_18  and  C_19
REMARK    7  A    between atoms: N_28  and  C_29
REMARK    8  A    between atoms: C_30  and  C_31
REMARK                            x       y       z     vdW  Elec       q    Type
REMARK                         _______ _______ _______ _____ _____    ______ ____
ROOT
ATOM      1  C   UNL     1       2.474   1.251  -0.792  0.00  0.00    +0.130 A 
ATOM      2  C   UNL     1       2.524   2.225   0.145  0.00  0.00    +0.043 A 
ATOM      3  C   UNL     1       3.760   2.978   0.565  0.00  0.00    +0.065 C 
ATOM      4  N   UNL     1       1.272   2.417   0.639  0.00  0.00    -0.344 N 
ATOM      5  C   UNL     1       0.899   3.388   1.671  0.00  0.00    +0.149 C 
ATOM      6  C   UNL     1       0.415   1.545   0.012  0.00  0.00    +0.076 A 
ATOM      7  C   UNL     1       1.146   0.812  -0.881  0.00  0.00    +0.059 A 
ENDROOT
BRANCH   6   8
ATOM      8  C   UNL     1      -1.028   1.421   0.257  0.00  0.00    +0.126 A 
ATOM      9  S   UNL     1      -2.216   0.327  -0.511  0.00  0.00    -0.061 S 
ATOM     10  C   UNL     1      -3.650   0.885   0.400  0.00  0.00    +0.097 A 
ATOM     11  C   UNL     1      -3.078   1.865   1.203  0.00  0.00    +0.058 A 
ATOM     12  C   UNL     1      -3.925   2.647   2.172  0.00  0.00    +0.067 C 
ATOM     13  N   UNL     1      -1.799   2.099   1.107  0.00  0.00    -0.242 NA
BRANCH  10  14
ATOM     14  C   UNL     1      -5.042   0.439   0.319  0.00  0.00    +0.255 C 
ATOM     15  N   UNL     1      -5.362  -0.639  -0.425  0.00  0.00    -0.297 N 
ATOM     16  C   UNL     1      -6.733  -0.829  -0.917  0.00  0.00    +0.108 C 
ATOM     17  C   UNL     1      -7.225  -2.213  -0.497  0.00  0.00    +0.019 C 
ATOM     18  C   UNL     1      -6.231  -3.273  -0.979  0.00  0.00    +0.003 C 
ATOM     19  C   UNL     1      -4.866  -3.027  -0.332  0.00  0.00    +0.019 C 
ATOM     20  C   UNL     1      -4.347  -1.649  -0.755  0.00  0.00    +0.108 C 
ATOM     21  O   UNL     1      -5.911   1.040   0.923  0.00  0.00    -0.269 OA
ENDBRANCH  10  14
ENDBRANCH   6   8
BRANCH   1  22
ATOM     22  S   UNL     1       3.835   0.638  -1.728  0.00  0.00    +0.075 S 
ATOM     23  O   UNL     1       3.312  -0.414  -2.527  0.00  0.00    -0.150 OA
ATOM     24  O   UNL     1       4.513   1.786  -2.220  0.00  0.00    -0.150 OA
BRANCH  22  29
ATOM     25  C   UNL     1       5.926  -3.700   2.498  0.00  0.00    +0.044 C 
ATOM     26  C   UNL     1       4.966  -2.949   1.612  0.00  0.00    -0.046 A 
ATOM     27  C   UNL     1       5.387  -1.850   0.885  0.00  0.00    +0.048 A 
ATOM     28  C   UNL     1       4.472  -1.185   0.074  0.00  0.00    +0.138 A 
ATOM     29  N   UNL     1       4.882  -0.082  -0.666  0.00  0.00    -0.199 N 
ATOM     30  H   UNL     1       5.781   0.266  -0.560  0.00  0.00    +0.175 HD
ATOM     31  N   UNL     1       3.213  -1.589   0.006  0.00  0.00    -0.239 NA
ATOM     32  C   UNL     1       2.783  -2.631   0.693  0.00  0.00    +0.113 A 
ATOM     33  C   UNL     1       3.637  -3.341   1.512  0.00  0.00    +0.023 A 
ENDBRANCH  22  29
ENDBRANCH   1  22
TORSDOF 4
