REMARK  Name = m85
REMARK  11 active torsions:
REMARK  status: ('A' for Active; 'I' for Inactive)
REMARK    1  A    between atoms: C_1  and  O_2
REMARK    2  A    between atoms: O_2  and  C_3
REMARK    3  A    between atoms: C_6  and  C_7
REMARK    4  A    between atoms: C_10  and  N_11
REMARK    5  A    between atoms: N_11  and  C_12
REMARK    6  A    between atoms: C_12  and  C_13
REMARK    7  A    between atoms: C_13  and  N_14
REMARK    8  A    between atoms: C_21  and  C_22
REMARK    9  A    between atoms: C_25  and  C_26
REMARK   10  A    between atoms: C_28  and  O_29
REMARK   11  A    between atoms: O_29  and  C_30
REMARK                            x       y       z     vdW  Elec       q    Type
REMARK                         _______ _______ _______ _____ _____    ______ ____
ROOT
ATOM      1  C   UNL     1       2.103   0.812   0.049  0.00  0.00    +0.098 A 
ATOM      2  C   UNL     1       1.976   2.188  -0.164  0.00  0.00    +0.021 A 
ATOM      3  C   UNL     1       3.104   3.166  -0.366  0.00  0.00    +0.050 C 
ATOM      4  C   UNL     1       0.623   2.489  -0.156  0.00  0.00    +0.161 A 
ATOM      5  N   UNL     1      -0.050   1.315   0.067  0.00  0.00    -0.200 N 
ATOM      6  C   UNL     1      -1.419   1.319   0.130  0.00  0.00    +0.124 A 
ATOM      7  C   UNL     1      -2.087   2.502  -0.032  0.00  0.00    +0.066 A 
ATOM      8  C   UNL     1      -1.361   3.672  -0.256  0.00  0.00    +0.044 A 
ATOM      9  C   UNL     1      -2.087   4.981  -0.436  0.00  0.00    +0.066 C 
ATOM     10  N   UNL     1      -0.048   3.640  -0.312  0.00  0.00    -0.233 NA
ATOM     11  N   UNL     1       0.897   0.292   0.190  0.00  0.00    -0.163 NA
ENDROOT
BRANCH   1  15
ATOM     12  C   UNL     1       5.773  -1.339   0.234  0.00  0.00    +0.162 A 
ATOM     13  C   UNL     1       4.686  -1.879  -0.449  0.00  0.00    +0.162 A 
ATOM     14  C   UNL     1       3.491  -1.184  -0.505  0.00  0.00    +0.059 A 
ATOM     15  C   UNL     1       3.382   0.060   0.112  0.00  0.00    +0.006 A 
ATOM     16  C   UNL     1       4.474   0.599   0.789  0.00  0.00    +0.014 A 
ATOM     17  C   UNL     1       5.663  -0.100   0.847  0.00  0.00    +0.050 A 
BRANCH  12  19
ATOM     18  C   UNL     1       7.856  -1.220   1.046  0.00  0.00    +0.277 C 
ATOM     19  O   UNL     1       6.946  -2.024   0.294  0.00  0.00    -0.491 OA
ENDBRANCH  12  19
BRANCH  13  20
ATOM     20  O   UNL     1       4.796  -3.093  -1.050  0.00  0.00    -0.491 OA
ATOM     21  C   UNL     1       3.528  -3.375  -1.647  0.00  0.00    +0.277 C 
ENDBRANCH  13  20
ENDBRANCH   1  15
BRANCH   6  22
ATOM     22  N   UNL     1      -2.112   0.149   0.354  0.00  0.00    -0.328 N 
ATOM     23  H   UNL     1      -1.631  -0.686   0.468  0.00  0.00    +0.147 HD
BRANCH  22  24
ATOM     24  C   UNL     1      -3.576   0.166   0.420  0.00  0.00    +0.118 C 
BRANCH  24  25
ATOM     25  C   UNL     1      -4.091  -1.252   0.676  0.00  0.00    +0.103 C 
BRANCH  25  26
ATOM     26  N   UNL     1      -5.559  -1.235   0.742  0.00  0.00    -0.297 NA
ATOM     27  C   UNL     1      -6.031  -0.647  -0.519  0.00  0.00    +0.112 C 
ATOM     28  C   UNL     1      -7.554  -0.756  -0.594  0.00  0.00    +0.175 C 
ATOM     29  O   UNL     1      -7.940  -2.130  -0.606  0.00  0.00    -0.377 OA
ATOM     30  C   UNL     1      -7.522  -2.695   0.637  0.00  0.00    +0.175 C 
ATOM     31  C   UNL     1      -5.997  -2.637   0.744  0.00  0.00    +0.112 C 
ENDBRANCH  25  26
ENDBRANCH  24  25
ENDBRANCH  22  24
ENDBRANCH   6  22
TORSDOF 7
