REMARK  Name = m86
REMARK  7 active torsions:
REMARK  status: ('A' for Active; 'I' for Inactive)
REMARK    1  A    between atoms: C_1  and  C_2
REMARK    2  A    between atoms: C_3  and  C_4
REMARK    3  A    between atoms: C_6  and  C_7
REMARK    4  A    between atoms: N_20  and  C_21
REMARK    5  A    between atoms: C_21  and  C_22
REMARK    6  A    between atoms: N_24  and  C_25
REMARK    7  A    between atoms: C_25  and  C_26
REMARK                            x       y       z     vdW  Elec       q    Type
REMARK                         _______ _______ _______ _____ _____    ______ ____
ROOT
ATOM      1  C   UNL     1       0.162   1.687  -1.206  0.00  0.00    +0.046 C 
ATOM      2  C   UNL     1       0.367   0.251  -0.799  0.00  0.00    -0.017 A 
ATOM      3  C   UNL     1      -0.719  -0.631  -0.766  0.00  0.00    +0.076 A 
ATOM      4  C   UNL     1      -0.423  -1.956  -0.378  0.00  0.00    +0.116 A 
ATOM      5  N   UNL     1      -1.362  -2.892  -0.309  0.00  0.00    -0.230 NA
ATOM      6  C   UNL     1      -2.607  -2.635  -0.604  0.00  0.00    +0.203 A 
ATOM      7  N   UNL     1      -3.011  -1.401  -0.995  0.00  0.00    -0.290 N 
ATOM      8  S   UNL     1       1.324  -1.910  -0.069  0.00  0.00    -0.063 S 
ATOM      9  C   UNL     1      -2.139  -0.378  -1.098  0.00  0.00    +0.263 A 
ATOM     10  O   UNL     1      -2.511   0.727  -1.451  0.00  0.00    -0.267 OA
ATOM     11  C   UNL     1       1.610  -0.192  -0.458  0.00  0.00    +0.082 A 
ENDROOT
BRANCH  11  12
ATOM     12  C   UNL     1       2.871   0.559  -0.419  0.00  0.00    +0.266 A 
ATOM     13  O   UNL     1       3.042   1.856  -0.727  0.00  0.00    -0.332 OA
ATOM     14  N   UNL     1       4.206   2.163  -0.587  0.00  0.00    -0.056 NA
ATOM     15  C   UNL     1       4.907   1.130  -0.193  0.00  0.00    +0.202 A 
ATOM     16  N   UNL     1       4.061   0.087  -0.080  0.00  0.00    -0.187 NA
BRANCH  15  17
ATOM     17  C   UNL     1       6.366   1.111   0.080  0.00  0.00    +0.024 A 
ATOM     18  C   UNL     1       6.983  -0.064   0.501  0.00  0.00    +0.031 A 
ATOM     19  C   UNL     1       8.342  -0.078   0.749  0.00  0.00    +0.042 A 
ATOM     20 CL   UNL     1       9.114  -1.543   1.268  0.00  0.00    -0.084 Cl
ATOM     21  C   UNL     1       9.088   1.077   0.589  0.00  0.00    +0.020 A 
ATOM     22  C   UNL     1       8.479   2.248   0.175  0.00  0.00    +0.002 A 
ATOM     23  C   UNL     1       7.122   2.271  -0.079  0.00  0.00    +0.012 A 
ENDBRANCH  15  17
ENDBRANCH  11  12
BRANCH   7  24
ATOM     24  C   UNL     1      -4.423  -1.174  -1.312  0.00  0.00    +0.221 C 
BRANCH  24  25
ATOM     25  C   UNL     1      -5.156  -0.748  -0.066  0.00  0.00    +0.233 C 
ATOM     26  N   UNL     1      -6.476  -0.483  -0.118  0.00  0.00    -0.311 N 
ATOM     27  H   UNL     1      -6.955  -0.567  -0.958  0.00  0.00    +0.149 HD
ATOM     28  O   UNL     1      -4.557  -0.644   0.984  0.00  0.00    -0.274 OA
BRANCH  26  29
ATOM     29  C   UNL     1      -7.188  -0.069   1.093  0.00  0.00    +0.135 C 
BRANCH  29  30
ATOM     30  C   UNL     1      -8.663   0.168   0.762  0.00  0.00    +0.135 C 
ATOM     31  O   UNL     1      -8.784   1.232  -0.196  0.00  0.00    -0.375 OA
ATOM     32  C   UNL     1     -10.005   1.940   0.112  0.00  0.00    +0.160 C 
ATOM     33  C   UNL     1     -10.015   1.985   1.661  0.00  0.00    +0.031 C 
ATOM     34  C   UNL     1      -9.421   0.604   2.031  0.00  0.00    +0.035 C 
ENDBRANCH  29  30
ENDBRANCH  26  29
ENDBRANCH  24  25
ENDBRANCH   7  24
TORSDOF 6
