REMARK  Name = m87
REMARK  7 active torsions:
REMARK  status: ('A' for Active; 'I' for Inactive)
REMARK    1  A    between atoms: C_1  and  C_2
REMARK    2  A    between atoms: C_12  and  N_13
REMARK    3  A    between atoms: C_18  and  N_19
REMARK    4  A    between atoms: N_22  and  C_23
REMARK    5  A    between atoms: C_23  and  C_24
REMARK    6  A    between atoms: C_24  and  O_25
REMARK    7  A    between atoms: C_28  and  C_29
REMARK                            x       y       z     vdW  Elec       q    Type
REMARK                         _______ _______ _______ _____ _____    ______ ____
ROOT
ATOM      1  C   UNL     1       8.701   0.568   0.063  0.00  0.00    +0.089 C 
ATOM      2  C   UNL     1       7.240   0.363  -0.241  0.00  0.00    +0.136 A 
ATOM      3  O   UNL     1       6.718  -0.504  -1.120  0.00  0.00    -0.358 OA
ATOM      4  N   UNL     1       5.510  -0.445  -1.145  0.00  0.00    -0.062 NA
ATOM      5  C   UNL     1       5.058   0.457  -0.313  0.00  0.00    +0.176 A 
ATOM      6  N   UNL     1       3.722   0.795  -0.087  0.00  0.00    -0.205 N 
ATOM      7  C   UNL     1       2.687  -0.135  -0.030  0.00  0.00    +0.140 A 
ATOM      8  N   UNL     1       2.721  -1.466  -0.161  0.00  0.00    -0.216 NA
ATOM      9  C   UNL     1       1.646  -2.226  -0.074  0.00  0.00    +0.129 A 
ATOM     10  C   UNL     1       0.387  -1.647   0.168  0.00  0.00    +0.063 A 
ATOM     11  C   UNL     1       0.313  -0.235   0.308  0.00  0.00    +0.016 A 
ATOM     12  C   UNL     1      -0.999   0.359   0.563  0.00  0.00    +0.100 A 
ATOM     13  C   UNL     1      -2.101  -0.506   0.644  0.00  0.00    +0.142 A 
ATOM     14  N   UNL     1      -1.958  -1.817   0.499  0.00  0.00    -0.216 NA
ATOM     15  C   UNL     1      -0.796  -2.403   0.271  0.00  0.00    +0.129 A 
ATOM     16  N   UNL     1      -0.741  -3.774   0.134  0.00  0.00    -0.343 N 
ATOM     17  H   UNL     1      -1.452  -4.243  -0.329  0.00  0.00    +0.144 HD
ATOM     18  H   UNL     1       0.009  -4.268   0.500  0.00  0.00    +0.144 HD
ATOM     19  C   UNL     1       1.484   0.507   0.208  0.00  0.00    +0.011 A 
ATOM     20  C   UNL     1       1.793   1.982   0.302  0.00  0.00    +0.136 C 
ATOM     21  C   UNL     1       3.291   2.054   0.092  0.00  0.00    +0.231 C 
ATOM     22  O   UNL     1       3.971   3.058   0.088  0.00  0.00    -0.274 OA
ATOM     23  C   UNL     1       6.199   1.023   0.316  0.00  0.00    +0.091 A 
ENDROOT
BRANCH  13  24
ATOM     24  N   UNL     1      -3.358   0.017   0.880  0.00  0.00    -0.312 N 
ATOM     25  C   UNL     1      -3.708   0.823  -0.296  0.00  0.00    +0.122 C 
ATOM     26  C   UNL     1      -5.141   1.337  -0.161  0.00  0.00    +0.103 C 
ATOM     27  N   UNL     1      -6.072   0.201  -0.130  0.00  0.00    -0.297 NA
ATOM     28  C   UNL     1      -5.722  -0.604   1.047  0.00  0.00    +0.103 C 
ATOM     29  C   UNL     1      -4.288  -1.118   0.911  0.00  0.00    +0.122 C 
BRANCH  27  30
ATOM     30  C   UNL     1      -7.408   0.757   0.121  0.00  0.00    +0.112 C 
BRANCH  30  31
ATOM     31  C   UNL     1      -7.941   1.402  -1.160  0.00  0.00    +0.171 C 
BRANCH  31  32
ATOM     32  O   UNL     1      -8.132   0.395  -2.156  0.00  0.00    -0.394 OA
ATOM     33  H   UNL     1      -8.467   0.842  -2.945  0.00  0.00    +0.209 HD
ENDBRANCH  31  32
ENDBRANCH  30  31
ENDBRANCH  27  30
ENDBRANCH  13  24
BRANCH   9  34
ATOM     34  N   UNL     1       1.757  -3.597  -0.219  0.00  0.00    -0.343 N 
ATOM     35  H   UNL     1       1.067  -4.092  -0.687  0.00  0.00    +0.144 HD
ATOM     36  H   UNL     1       2.524  -4.063   0.148  0.00  0.00    +0.144 HD
ENDBRANCH   9  34
BRANCH  12  37
ATOM     37  C   UNL     1      -1.153   1.774   0.720  0.00  0.00    +0.103 C 
ATOM     38  N   UNL     1      -1.275   2.897   0.844  0.00  0.00    -0.191 NA
ENDBRANCH  12  37
TORSDOF 6
