REMARK  Name = m88
REMARK  9 active torsions:
REMARK  status: ('A' for Active; 'I' for Inactive)
REMARK    1  A    between atoms: C_1  and  O_2
REMARK    2  A    between atoms: O_2  and  C_3
REMARK    3  A    between atoms: C_6  and  N_7
REMARK    4  A    between atoms: N_7  and  C_8
REMARK    5  A    between atoms: C_11  and  C_12
REMARK    6  A    between atoms: C_15  and  C_16
REMARK    7  A    between atoms: C_17  and  S_18
REMARK    8  A    between atoms: S_18  and  N_19
REMARK    9  A    between atoms: C_30  and  C_31
REMARK                            x       y       z     vdW  Elec       q    Type
REMARK                         _______ _______ _______ _____ _____    ______ ____
ROOT
ATOM      1  C   UNL     1       0.267  -1.269   0.061  0.00  0.00    +0.153 A 
ATOM      2  C   UNL     1      -0.534  -2.426   0.208  0.00  0.00    +0.026 A 
ATOM      3  C   UNL     1      -1.936  -2.281   0.055  0.00  0.00    +0.013 A 
ATOM      4  C   UNL     1      -2.765  -3.397   0.197  0.00  0.00    +0.011 A 
ATOM      5  C   UNL     1      -2.211  -4.610   0.487  0.00  0.00    +0.001 A 
ATOM      6  C   UNL     1      -0.835  -4.752   0.643  0.00  0.00    +0.001 A 
ATOM      7  C   UNL     1      -2.436  -0.989  -0.245  0.00  0.00    +0.101 A 
ATOM      8  N   UNL     1      -1.583   0.015  -0.363  0.00  0.00    -0.147 NA
ATOM      9  C   UNL     1       0.002  -3.682   0.511  0.00  0.00    +0.012 A 
ATOM     10  N   UNL     1      -0.317  -0.117  -0.219  0.00  0.00    -0.133 NA
ENDROOT
BRANCH   7  11
ATOM     11  C   UNL     1      -3.888  -0.767  -0.425  0.00  0.00    +0.005 A 
ATOM     12  C   UNL     1      -4.490   0.383   0.087  0.00  0.00    +0.039 A 
ATOM     13  C   UNL     1      -5.843   0.586  -0.088  0.00  0.00    +0.109 A 
ATOM     14  C   UNL     1      -6.606  -0.353  -0.759  0.00  0.00    -0.024 A 
ATOM     15  C   UNL     1      -8.085  -0.127  -0.941  0.00  0.00    +0.046 C 
ATOM     16  C   UNL     1      -6.016  -1.498  -1.264  0.00  0.00    +0.006 A 
ATOM     17  C   UNL     1      -4.663  -1.710  -1.101  0.00  0.00    +0.010 A 
BRANCH  13  18
ATOM     18  S   UNL     1      -6.604   2.041   0.553  0.00  0.00    +0.056 S 
ATOM     19  O   UNL     1      -5.552   2.807   1.123  0.00  0.00    -0.153 OA
ATOM     20  O   UNL     1      -7.766   1.598   1.241  0.00  0.00    -0.153 OA
BRANCH  18  21
ATOM     21  N   UNL     1      -7.153   2.921  -0.738  0.00  0.00    -0.204 NA
ATOM     22  H   UNL     1      -6.692   2.872  -1.590  0.00  0.00    +0.144 HD
ATOM     23  H   UNL     1      -7.936   3.486  -0.642  0.00  0.00    +0.144 HD
ENDBRANCH  18  21
ENDBRANCH  13  18
ENDBRANCH   7  11
BRANCH   1  24
ATOM     24  N   UNL     1       1.643  -1.344   0.204  0.00  0.00    -0.297 N 
ATOM     25  H   UNL     1       2.071  -2.205   0.332  0.00  0.00    +0.154 HD
BRANCH  24  29
ATOM     26  C   UNL     1       3.933   2.150   0.088  0.00  0.00    +0.132 A 
ATOM     27  C   UNL     1       4.461   0.952  -0.412  0.00  0.00    +0.080 A 
ATOM     28  C   UNL     1       3.694  -0.214  -0.366  0.00  0.00    +0.040 A 
ATOM     29  C   UNL     1       2.415  -0.177   0.162  0.00  0.00    +0.033 A 
ATOM     30  C   UNL     1       1.895   1.017   0.651  0.00  0.00    +0.027 A 
ATOM     31  C   UNL     1       2.650   2.172   0.614  0.00  0.00    +0.048 A 
BRANCH  27  32
ATOM     32  C   UNL     1       5.825   0.921  -0.974  0.00  0.00    +0.250 C 
ATOM     33  N   UNL     1       6.698  -0.023  -0.570  0.00  0.00    -0.297 N 
ATOM     34  C   UNL     1       6.354  -0.943   0.522  0.00  0.00    +0.108 C 
ATOM     35  C   UNL     1       7.452  -0.889   1.583  0.00  0.00    +0.019 C 
ATOM     36  C   UNL     1       8.806  -1.170   0.927  0.00  0.00    +0.003 C 
ATOM     37  C   UNL     1       9.097  -0.099  -0.127  0.00  0.00    +0.019 C 
ATOM     38  C   UNL     1       8.015  -0.147  -1.210  0.00  0.00    +0.108 C 
ATOM     39  O   UNL     1       6.161   1.747  -1.800  0.00  0.00    -0.270 OA
ENDBRANCH  27  32
BRANCH  26  41
ATOM     40  C   UNL     1       3.868   4.322   0.620  0.00  0.00    +0.277 C 
ATOM     41  O   UNL     1       4.673   3.287   0.052  0.00  0.00    -0.494 OA
ENDBRANCH  26  41
ENDBRANCH  24  29
ENDBRANCH   1  24
TORSDOF 7
