REMARK  Name = m89
REMARK  11 active torsions:
REMARK  status: ('A' for Active; 'I' for Inactive)
REMARK    1  A    between atoms: C_1  and  C_2
REMARK    2  A    between atoms: C_2  and  O_3
REMARK    3  A    between atoms: O_3  and  C_4
REMARK    4  A    between atoms: C_4  and  C_6
REMARK    5  A    between atoms: C_8  and  C_9
REMARK    6  A    between atoms: N_15  and  C_16
REMARK    7  A    between atoms: C_16  and  C_17
REMARK    8  A    between atoms: C_19  and  C_20
REMARK    9  A    between atoms: C_24  and  C_25
REMARK   10  A    between atoms: C_28  and  C_29
REMARK   11  A    between atoms: N_32  and  C_33
REMARK                            x       y       z     vdW  Elec       q    Type
REMARK                         _______ _______ _______ _____ _____    ______ ____
ROOT
ATOM      1  C   UNL     1       3.553  -0.046  -0.690  0.00  0.00    +0.077 A 
ATOM      2  C   UNL     1       2.493  -0.661  -0.006  0.00  0.00    +0.096 A 
ATOM      3  C   UNL     1       1.541   0.109   0.813  0.00  0.00    +0.267 A 
ATOM      4  N   UNL     1       0.542  -0.561   1.430  0.00  0.00    -0.254 N 
ATOM      5  C   UNL     1       0.419  -1.891   1.302  0.00  0.00    +0.334 A 
ATOM      6  N   UNL     1       1.264  -2.637   0.571  0.00  0.00    -0.281 N 
ATOM      7  C   UNL     1       1.060  -4.085   0.482  0.00  0.00    +0.155 C 
ATOM      8  O   UNL     1      -0.497  -2.447   1.877  0.00  0.00    -0.246 OA
ATOM      9  O   UNL     1       1.651   1.314   0.930  0.00  0.00    -0.267 OA
ATOM     10  C   UNL     1       2.319  -2.052  -0.108  0.00  0.00    +0.151 A 
ATOM     11  N   UNL     1       3.156  -2.775  -0.834  0.00  0.00    -0.234 NA
ATOM     12  C   UNL     1       4.163  -2.227  -1.483  0.00  0.00    +0.041 A 
ATOM     13  C   UNL     1       5.080  -3.107  -2.293  0.00  0.00    +0.065 C 
ATOM     14  C   UNL     1       4.401  -0.863  -1.440  0.00  0.00    +0.039 A 
ENDROOT
BRANCH   1  15
ATOM     15  C   UNL     1       3.768   1.418  -0.614  0.00  0.00    +0.340 C 
ATOM     16  O   UNL     1       2.856   2.179  -0.864  0.00  0.00    -0.245 OA
BRANCH  15  17
ATOM     17  O   UNL     1       4.975   1.904  -0.266  0.00  0.00    -0.461 OA
BRANCH  17  19
ATOM     18  C   UNL     1       6.632   3.621   0.222  0.00  0.00    +0.048 C 
ATOM     19  C   UNL     1       5.186   3.339  -0.191  0.00  0.00    +0.229 C 
ENDBRANCH  17  19
ENDBRANCH  15  17
ENDBRANCH   1  15
BRANCH   4  20
ATOM     20  C   UNL     1      -0.420   0.177   2.252  0.00  0.00    +0.188 C 
BRANCH  20  21
ATOM     21  C   UNL     1      -1.579   0.617   1.394  0.00  0.00    +0.103 A 
ATOM     22  C   UNL     1      -1.672   1.779   0.722  0.00  0.00    +0.127 A 
ATOM     23  C   UNL     1      -0.637   2.873   0.684  0.00  0.00    +0.088 C 
ATOM     24  O   UNL     1      -2.859   1.778   0.083  0.00  0.00    -0.440 OA
ATOM     25  C   UNL     1      -3.480   0.622   0.377  0.00  0.00    +0.228 A 
ATOM     26  N   UNL     1      -2.705  -0.079   1.171  0.00  0.00    -0.212 NA
BRANCH  25  27
ATOM     27  C   UNL     1      -4.813   0.211  -0.111  0.00  0.00    +0.037 A 
ATOM     28  C   UNL     1      -5.544   1.054  -0.949  0.00  0.00    +0.016 A 
ATOM     29  C   UNL     1      -6.785   0.662  -1.405  0.00  0.00    -0.050 A 
ATOM     30  C   UNL     1      -7.573   1.569  -2.316  0.00  0.00    +0.044 C 
ATOM     31  C   UNL     1      -7.311  -0.560  -1.024  0.00  0.00    +0.003 A 
ATOM     32  C   UNL     1      -6.595  -1.398  -0.188  0.00  0.00    +0.001 A 
ATOM     33  C   UNL     1      -5.350  -1.020   0.270  0.00  0.00    +0.013 A 
ENDBRANCH  25  27
ENDBRANCH  20  21
ENDBRANCH   4  20
TORSDOF 6
