REMARK  Name = m90
REMARK  4 active torsions:
REMARK  status: ('A' for Active; 'I' for Inactive)
REMARK    1  A    between atoms: C_1  and  C_2
REMARK    2  A    between atoms: C_5  and  C_6
REMARK    3  A    between atoms: C_8  and  N_9
REMARK    4  A    between atoms: C_10  and  C_12
REMARK                            x       y       z     vdW  Elec       q    Type
REMARK                         _______ _______ _______ _____ _____    ______ ____
ROOT
ATOM      1  N   UNL     1      -0.042  -1.588   0.067  0.00  0.00    -0.267 N 
ATOM      2  H   UNL     1      -0.564  -2.402  -0.014  0.00  0.00    +0.157 HD
ATOM      3  C   UNL     1      -0.659  -0.414   0.304  0.00  0.00    +0.255 C 
ATOM      4  O   UNL     1      -0.001   0.590   0.505  0.00  0.00    -0.270 OA
ENDROOT
BRANCH   3   5
ATOM      5  C   UNL     1      -2.128  -0.345   0.320  0.00  0.00    +0.101 A 
ATOM      6  C   UNL     1      -2.909  -1.524   0.202  0.00  0.00    +0.261 A 
ATOM      7  O   UNL     1      -2.363  -2.609   0.091  0.00  0.00    -0.267 OA
ATOM      8  N   UNL     1      -4.252  -1.444   0.223  0.00  0.00    -0.325 N 
ATOM      9  H   UNL     1      -4.781  -2.254   0.146  0.00  0.00    +0.169 HD
ATOM     10  C   UNL     1      -4.878  -0.245   0.345  0.00  0.00    +0.022 A 
ATOM     11  C   UNL     1      -6.393  -0.207   0.354  0.00  0.00    +0.053 C 
ATOM     12  C   UNL     1      -6.873   0.412  -0.960  0.00  0.00    +0.006 C 
ATOM     13  C   UNL     1      -6.912   1.925  -0.864  0.00  0.00    +0.001 C 
ATOM     14  C   UNL     1      -5.545   2.572  -0.742  0.00  0.00    +0.005 C 
ATOM     15  C   UNL     1      -4.896   2.224   0.599  0.00  0.00    +0.037 C 
ATOM     16  C   UNL     1      -4.176   0.899   0.457  0.00  0.00    -0.027 A 
ATOM     17  C   UNL     1      -2.780   0.880   0.447  0.00  0.00    +0.023 A 
ENDBRANCH   3   5
BRANCH   1  22
ATOM     18  C   UNL     1       3.503  -1.056  -0.162  0.00  0.00    +0.101 A 
ATOM     19  N   UNL     1       3.437  -2.356  -0.365  0.00  0.00    -0.172 NA
ATOM     20  N   UNL     1       2.092  -2.743  -0.301  0.00  0.00    -0.263 N 
ATOM     21  H   UNL     1       1.753  -3.645  -0.412  0.00  0.00    +0.190 HD
ATOM     22  C   UNL     1       1.345  -1.633  -0.062  0.00  0.00    +0.121 A 
ATOM     23  C   UNL     1       2.193  -0.575   0.029  0.00  0.00    +0.074 A 
BRANCH  18  27
ATOM     24  C   UNL     1       7.601   2.808   0.082  0.00  0.00    +0.051 C 
ATOM     25  C   UNL     1       6.701   1.604  -0.028  0.00  0.00    -0.013 A 
ATOM     26  S   UNL     1       4.924   1.514   0.121  0.00  0.00    -0.092 S 
ATOM     27  C   UNL     1       4.738  -0.242  -0.144  0.00  0.00    +0.040 A 
ATOM     28  C   UNL     1       6.036  -0.640  -0.321  0.00  0.00    +0.018 A 
ATOM     29  C   UNL     1       7.034   0.309  -0.260  0.00  0.00    +0.011 A 
ENDBRANCH  18  27
ENDBRANCH   1  22
TORSDOF 3
