REMARK  Name = m91
REMARK  7 active torsions:
REMARK  status: ('A' for Active; 'I' for Inactive)
REMARK    1  A    between atoms: C_1  and  C_2
REMARK    2  A    between atoms: C_8  and  N_9
REMARK    3  A    between atoms: C_10  and  C_12
REMARK    4  A    between atoms: C_12  and  N_13
REMARK    5  A    between atoms: C_18  and  C_19
REMARK    6  A    between atoms: C_21  and  C_22
REMARK    7  A    between atoms: C_30  and  C_31
REMARK                            x       y       z     vdW  Elec       q    Type
REMARK                         _______ _______ _______ _____ _____    ______ ____
ROOT
ATOM      1  N   UNL     1       2.165  -1.947   0.290  0.00  0.00    -0.290 N 
ATOM      2  C   UNL     1       1.220  -1.215   0.912  0.00  0.00    +0.263 A 
ATOM      3  O   UNL     1       1.480  -0.590   1.925  0.00  0.00    -0.267 OA
ATOM      4  C   UNL     1      -0.141  -1.186   0.331  0.00  0.00    +0.076 A 
ATOM      5  C   UNL     1      -0.306  -1.960  -0.839  0.00  0.00    +0.116 A 
ATOM      6  S   UNL     1      -2.014  -1.711  -1.254  0.00  0.00    -0.063 S 
ATOM      7  C   UNL     1      -2.450  -0.622   0.091  0.00  0.00    +0.082 A 
ATOM      8  N   UNL     1       0.695  -2.652  -1.369  0.00  0.00    -0.230 NA
ATOM      9  C   UNL     1      -1.279  -0.508   0.778  0.00  0.00    -0.017 A 
ATOM     10  C   UNL     1      -1.211   0.346   2.018  0.00  0.00    +0.046 C 
ATOM     11  C   UNL     1       1.885  -2.652  -0.834  0.00  0.00    +0.203 A 
ENDROOT
BRANCH   7  12
ATOM     12  C   UNL     1      -3.749  -0.003   0.384  0.00  0.00    +0.266 A 
ATOM     13  O   UNL     1      -4.035   0.809   1.416  0.00  0.00    -0.332 OA
ATOM     14  N   UNL     1      -5.198   1.148   1.364  0.00  0.00    -0.056 NA
ATOM     15  C   UNL     1      -5.786   0.604   0.329  0.00  0.00    +0.202 A 
ATOM     16  N   UNL     1      -4.865  -0.141  -0.314  0.00  0.00    -0.187 NA
BRANCH  15  17
ATOM     17  C   UNL     1      -7.208   0.777  -0.065  0.00  0.00    +0.025 A 
ATOM     18  C   UNL     1      -7.720   0.144  -1.200  0.00  0.00    +0.031 A 
ATOM     19  C   UNL     1      -9.049   0.326  -1.527  0.00  0.00    +0.111 A 
ATOM     20  N   UNL     1      -9.828   1.094  -0.790  0.00  0.00    -0.263 NA
ATOM     21  C   UNL     1      -9.383   1.713   0.286  0.00  0.00    +0.111 A 
ATOM     22  C   UNL     1      -8.068   1.580   0.687  0.00  0.00    +0.031 A 
ENDBRANCH  15  17
ENDBRANCH   7  12
BRANCH   1  23
ATOM     23  C   UNL     1       3.521  -1.987   0.844  0.00  0.00    +0.222 C 
BRANCH  23  26
ATOM     24  N   UNL     1       5.631  -0.720   0.602  0.00  0.00    -0.284 N 
ATOM     25  H   UNL     1       6.054  -1.368   1.187  0.00  0.00    +0.155 HD
ATOM     26  C   UNL     1       4.343  -0.878   0.240  0.00  0.00    +0.237 C 
ATOM     27  O   UNL     1       3.845  -0.127  -0.573  0.00  0.00    -0.274 OA
BRANCH  24  30
ATOM     28  C   UNL     1       8.465  -0.939   0.479  0.00  0.00    +0.045 C 
ATOM     29  C   UNL     1       7.744   0.318   0.062  0.00  0.00    -0.029 A 
ATOM     30  C   UNL     1       6.359   0.381   0.136  0.00  0.00    +0.039 A 
ATOM     31  C   UNL     1       5.698   1.542  -0.243  0.00  0.00    +0.062 A 
ATOM     32  C   UNL     1       6.421   2.627  -0.704  0.00  0.00    +0.125 A 
ATOM     33  F   UNL     1       5.779   3.756  -1.079  0.00  0.00    -0.205 F 
ATOM     34  C   UNL     1       7.803   2.558  -0.781  0.00  0.00    +0.039 A 
ATOM     35  C   UNL     1       8.461   1.405  -0.398  0.00  0.00    +0.008 A 
ENDBRANCH  24  30
ENDBRANCH  23  26
ENDBRANCH   1  23
TORSDOF 5
