REMARK  Name = m92
REMARK  10 active torsions:
REMARK  status: ('A' for Active; 'I' for Inactive)
REMARK    1  A    between atoms: C_1  and  C_2
REMARK    2  A    between atoms: C_2  and  S_3
REMARK    3  A    between atoms: S_3  and  C_4
REMARK    4  A    between atoms: C_7  and  C_8
REMARK    5  A    between atoms: N_10  and  C_11
REMARK    6  A    between atoms: N_15  and  S_16
REMARK    7  A    between atoms: S_16  and  C_19
REMARK    8  A    between atoms: C_23  and  C_24
REMARK    9  A    between atoms: N_28  and  C_29
REMARK   10  A    between atoms: C_29  and  C_30
REMARK                            x       y       z     vdW  Elec       q    Type
REMARK                         _______ _______ _______ _____ _____    ______ ____
ROOT
ATOM      1  C   UNL     1       0.940  -1.499   0.097  0.00  0.00    +0.134 A 
ATOM      2  C   UNL     1      -0.338  -1.346   0.656  0.00  0.00    +0.020 A 
ATOM      3  C   UNL     1      -0.827  -0.247   1.569  0.00  0.00    +0.148 C 
ATOM      4  N   UNL     1      -2.294  -0.370   1.655  0.00  0.00    -0.172 NA
ATOM      5  C   UNL     1      -2.872  -1.709   1.836  0.00  0.00    +0.116 C 
ATOM      6  C   UNL     1      -2.559  -2.567   0.606  0.00  0.00    +0.072 C 
ATOM      7  C   UNL     1      -1.109  -2.377   0.234  0.00  0.00    +0.045 A 
ATOM      8  N   UNL     1      -0.352  -3.166  -0.551  0.00  0.00    -0.270 N 
ATOM      9  C   UNL     1      -0.790  -4.399  -1.208  0.00  0.00    +0.172 C 
ATOM     10  N   UNL     1       0.930  -2.602  -0.629  0.00  0.00    -0.168 NA
ENDROOT
BRANCH   1  13
ATOM     11  C   UNL     1       4.071   0.328   0.202  0.00  0.00    +0.192 A 
ATOM     12  N   UNL     1       3.346  -0.737  -0.254  0.00  0.00    -0.301 N 
ATOM     13  C   UNL     1       2.092  -0.592   0.291  0.00  0.00    +0.185 A 
ATOM     14  N   UNL     1       2.108   0.505   1.011  0.00  0.00    -0.127 NA
ATOM     15  N   UNL     1       3.272   1.047   0.959  0.00  0.00    -0.122 NA
BRANCH  12  16
ATOM     16  C   UNL     1       3.812  -1.812  -1.133  0.00  0.00    +0.122 C 
ATOM     17  C   UNL     1       3.561  -1.424  -2.591  0.00  0.00    +0.027 C 
ENDBRANCH  12  16
BRANCH  11  18
ATOM     18  S   UNL     1       5.759   0.677  -0.163  0.00  0.00    -0.086 S 
BRANCH  18  20
ATOM     19  C   UNL     1       7.406   2.717   0.606  0.00  0.00    +0.016 C 
ATOM     20  C   UNL     1       5.973   2.210   0.776  0.00  0.00    +0.074 C 
ENDBRANCH  18  20
ENDBRANCH  11  18
ENDBRANCH   1  13
BRANCH   4  21
ATOM     21  S   UNL     1      -3.265   0.967   1.550  0.00  0.00    +0.061 S 
ATOM     22  O   UNL     1      -2.446   2.070   1.913  0.00  0.00    -0.153 OA
ATOM     23  O   UNL     1      -4.487   0.607   2.181  0.00  0.00    -0.153 OA
BRANCH  21  24
ATOM     24  C   UNL     1      -3.656   1.201  -0.152  0.00  0.00    +0.106 A 
ATOM     25  C   UNL     1      -2.845   1.991  -0.945  0.00  0.00    +0.032 A 
ATOM     26  C   UNL     1      -3.150   2.171  -2.282  0.00  0.00    -0.049 A 
ATOM     27  C   UNL     1      -2.262   3.027  -3.148  0.00  0.00    +0.044 C 
ATOM     28  C   UNL     1      -4.271   1.569  -2.823  0.00  0.00    +0.003 A 
ATOM     29  C   UNL     1      -5.085   0.783  -2.028  0.00  0.00    +0.002 A 
ATOM     30  C   UNL     1      -4.778   0.600  -0.693  0.00  0.00    +0.028 A 
ENDBRANCH  21  24
ENDBRANCH   4  21
TORSDOF 6
