REMARK  Name = m93
REMARK  9 active torsions:
REMARK  status: ('A' for Active; 'I' for Inactive)
REMARK    1  A    between atoms: C_1  and  C_2
REMARK    2  A    between atoms: C_2  and  C_3
REMARK    3  A    between atoms: C_3  and  N_4
REMARK    4  A    between atoms: C_6  and  S_7
REMARK    5  A    between atoms: S_7  and  N_10
REMARK    6  A    between atoms: C_13  and  C_14
REMARK    7  A    between atoms: C_15  and  C_16
REMARK    8  A    between atoms: N_18  and  C_19
REMARK    9  A    between atoms: C_28  and  C_29
REMARK                            x       y       z     vdW  Elec       q    Type
REMARK                         _______ _______ _______ _____ _____    ______ ____
ROOT
ATOM      1  N   UNL     1       0.515  -1.550  -0.388  0.00  0.00    -0.176 NA
ATOM      2  C   UNL     1      -0.502  -0.829   0.398  0.00  0.00    +0.117 C 
ATOM      3  C   UNL     1      -1.271   0.027  -0.643  0.00  0.00    +0.038 C 
ATOM      4  C   UNL     1      -1.312  -0.932  -1.862  0.00  0.00    +0.026 C 
ATOM      5  C   UNL     1       0.049  -1.654  -1.779  0.00  0.00    +0.110 C 
ENDROOT
BRANCH   3   6
ATOM      6  C   UNL     1      -2.663   0.343  -0.157  0.00  0.00    -0.015 A 
ATOM      7  C   UNL     1      -3.537  -0.698   0.200  0.00  0.00    +0.012 A 
ATOM      8  C   UNL     1      -4.818  -0.293   0.648  0.00  0.00    +0.109 A 
ATOM      9  N   UNL     1      -5.742  -1.150   1.020  0.00  0.00    -0.248 NA
ATOM     10  C   UNL     1      -5.517  -2.450   1.000  0.00  0.00    +0.112 A 
ATOM     11  C   UNL     1      -4.290  -2.945   0.583  0.00  0.00    +0.020 A 
ATOM     12  S   UNL     1      -4.747   1.478   0.538  0.00  0.00    -0.064 S 
ATOM     13  C   UNL     1      -3.297  -2.097   0.186  0.00  0.00    +0.012 A 
ATOM     14  C   UNL     1      -3.076   1.635  -0.069  0.00  0.00    +0.080 A 
BRANCH  14  15
ATOM     15  C   UNL     1      -2.331   2.859  -0.395  0.00  0.00    +0.251 C 
ATOM     16  N   UNL     1      -2.872   4.066  -0.136  0.00  0.00    -0.314 N 
ATOM     17  H   UNL     1      -3.753   4.127   0.265  0.00  0.00    +0.149 HD
ATOM     18  C   UNL     1      -2.129   5.286  -0.461  0.00  0.00    +0.128 C 
ATOM     19  O   UNL     1      -1.227   2.783  -0.899  0.00  0.00    -0.270 OA
ENDBRANCH  14  15
ENDBRANCH   3   6
BRANCH   1  20
ATOM     20  S   UNL     1       1.942  -2.150   0.199  0.00  0.00    +0.064 S 
ATOM     21  O   UNL     1       1.748  -2.307   1.598  0.00  0.00    -0.153 OA
ATOM     22  O   UNL     1       2.326  -3.183  -0.699  0.00  0.00    -0.153 OA
BRANCH  20  27
ATOM     23  N   UNL     1       4.645   0.643   0.482  0.00  0.00    -0.269 N 
ATOM     24  N   UNL     1       4.519   0.558  -0.910  0.00  0.00    -0.174 NA
ATOM     25  C   UNL     1       3.631  -0.363  -1.184  0.00  0.00    +0.086 A 
ATOM     26  C   UNL     1       3.190  -0.783  -2.563  0.00  0.00    +0.069 C 
ATOM     27  C   UNL     1       3.157  -0.886   0.023  0.00  0.00    +0.146 A 
ATOM     28  C   UNL     1       3.797  -0.251   1.032  0.00  0.00    +0.137 A 
BRANCH  23  29
ATOM     29  C   UNL     1       5.536   1.548   1.213  0.00  0.00    +0.143 C 
BRANCH  29  31
ATOM     30  C   UNL     1       7.905   2.293   1.492  0.00  0.00    +0.005 C 
ATOM     31  C   UNL     1       6.974   1.348   0.729  0.00  0.00    +0.020 C 
ENDBRANCH  29  31
ENDBRANCH  23  29
ENDBRANCH  20  27
ENDBRANCH   1  20
TORSDOF 6
