REMARK  Name = m94
REMARK  8 active torsions:
REMARK  status: ('A' for Active; 'I' for Inactive)
REMARK    1  A    between atoms: C_1  and  C_2
REMARK    2  A    between atoms: C_6  and  C_7
REMARK    3  A    between atoms: C_10  and  C_11
REMARK    4  A    between atoms: N_16  and  C_17
REMARK    5  A    between atoms: C_17  and  C_18
REMARK    6  A    between atoms: N_20  and  C_21
REMARK    7  A    between atoms: C_21  and  C_22
REMARK    8  A    between atoms: C_30  and  C_31
REMARK                            x       y       z     vdW  Elec       q    Type
REMARK                         _______ _______ _______ _____ _____    ______ ____
ROOT
ATOM      1  C   UNL     1       1.980  -0.586  -0.234  0.00  0.00    +0.082 A 
ATOM      2  C   UNL     1       0.777  -0.116  -0.671  0.00  0.00    -0.017 A 
ATOM      3  C   UNL     1       0.678   1.263  -1.270  0.00  0.00    +0.046 C 
ATOM      4  C   UNL     1      -0.363  -0.919  -0.567  0.00  0.00    +0.076 A 
ATOM      5  C   UNL     1      -0.168  -2.192   0.013  0.00  0.00    +0.116 A 
ATOM      6  N   UNL     1      -1.168  -3.049   0.176  0.00  0.00    -0.230 NA
ATOM      7  C   UNL     1      -2.386  -2.757  -0.194  0.00  0.00    +0.203 A 
ATOM      8  N   UNL     1      -2.696  -1.566  -0.763  0.00  0.00    -0.290 N 
ATOM      9  C   UNL     1      -1.755  -0.624  -0.974  0.00  0.00    +0.263 A 
ATOM     10  O   UNL     1      -2.044   0.444  -1.485  0.00  0.00    -0.267 OA
ATOM     11  S   UNL     1       1.570  -2.213   0.374  0.00  0.00    -0.063 S 
ENDROOT
BRANCH   1  14
ATOM     12  C   UNL     1       5.349   0.552  -0.035  0.00  0.00    +0.202 A 
ATOM     13  N   UNL     1       4.434  -0.413   0.184  0.00  0.00    -0.187 NA
ATOM     14  C   UNL     1       3.287   0.083  -0.253  0.00  0.00    +0.266 A 
ATOM     15  O   UNL     1       3.550   1.314  -0.723  0.00  0.00    -0.332 OA
ATOM     16  N   UNL     1       4.730   1.562  -0.590  0.00  0.00    -0.056 NA
BRANCH  12  20
ATOM     17  C   UNL     1       9.882   2.648  -0.007  0.00  0.00    +0.044 C 
ATOM     18  C   UNL     1       8.977   1.484   0.304  0.00  0.00    -0.050 A 
ATOM     19  C   UNL     1       7.631   1.558   0.006  0.00  0.00    +0.015 A 
ATOM     20  C   UNL     1       6.797   0.479   0.289  0.00  0.00    +0.023 A 
ATOM     21  C   UNL     1       7.324  -0.666   0.882  0.00  0.00    +0.012 A 
ATOM     22  C   UNL     1       8.670  -0.728   1.181  0.00  0.00    +0.001 A 
ATOM     23  C   UNL     1       9.495   0.344   0.893  0.00  0.00    +0.003 A 
ENDBRANCH  12  20
ENDBRANCH   1  14
BRANCH   8  24
ATOM     24  C   UNL     1      -4.081  -1.298  -1.158  0.00  0.00    +0.221 C 
BRANCH  24  25
ATOM     25  C   UNL     1      -4.816  -0.659  -0.007  0.00  0.00    +0.233 C 
ATOM     26  N   UNL     1      -6.114  -0.322  -0.141  0.00  0.00    -0.311 N 
ATOM     27  H   UNL     1      -6.575  -0.490  -0.978  0.00  0.00    +0.149 HD
ATOM     28  O   UNL     1      -4.239  -0.449   1.039  0.00  0.00    -0.274 OA
BRANCH  26  29
ATOM     29  C   UNL     1      -6.828   0.299   0.977  0.00  0.00    +0.135 C 
BRANCH  29  30
ATOM     30  C   UNL     1      -8.275   0.579   0.566  0.00  0.00    +0.135 C 
ATOM     31  O   UNL     1      -8.300   1.508  -0.532  0.00  0.00    -0.375 OA
ATOM     32  C   UNL     1      -9.478   2.325  -0.365  0.00  0.00    +0.160 C 
ATOM     33  C   UNL     1      -9.525   2.585   1.162  0.00  0.00    +0.031 C 
ATOM     34  C   UNL     1      -9.035   1.233   1.736  0.00  0.00    +0.035 C 
ENDBRANCH  29  30
ENDBRANCH  26  29
ENDBRANCH  24  25
ENDBRANCH   8  24
TORSDOF 6
