REMARK  Name = m95
REMARK  12 active torsions:
REMARK  status: ('A' for Active; 'I' for Inactive)
REMARK    1  A    between atoms: C_1  and  C_2
REMARK    2  A    between atoms: C_2  and  O_3
REMARK    3  A    between atoms: O_3  and  C_4
REMARK    4  A    between atoms: C_4  and  C_6
REMARK    5  A    between atoms: C_8  and  N_9
REMARK    6  A    between atoms: C_10  and  C_12
REMARK    7  A    between atoms: C_14  and  C_15
REMARK    8  A    between atoms: C_27  and  C_28
REMARK    9  A    between atoms: C_28  and  O_30
REMARK   10  A    between atoms: O_30  and  C_31
REMARK   11  A    between atoms: C_31  and  C_32
REMARK   12  A    between atoms: C_33  and  C_34
REMARK                            x       y       z     vdW  Elec       q    Type
REMARK                         _______ _______ _______ _____ _____    ______ ____
ROOT
ATOM      1  N   UNL     1       1.162  -0.628  -0.310  0.00  0.00    -0.274 N 
ATOM      2  H   UNL     1       0.904  -1.550  -0.468  0.00  0.00    +0.156 HD
ATOM      3  C   UNL     1       0.216   0.323  -0.174  0.00  0.00    +0.270 C 
ATOM      4  O   UNL     1       0.539   1.477   0.024  0.00  0.00    -0.268 OA
ENDROOT
BRANCH   1   9
ATOM      5  C   UNL     1       4.922   0.810   0.011  0.00  0.00    +0.102 A 
ATOM      6  C   UNL     1       4.868  -0.539  -0.219  0.00  0.00    -0.014 A 
ATOM      7  C   UNL     1       6.126  -1.363  -0.328  0.00  0.00    +0.046 C 
ATOM      8  C   UNL     1       3.616  -1.122  -0.337  0.00  0.00    +0.091 A 
ATOM      9  C   UNL     1       2.497  -0.290  -0.224  0.00  0.00    +0.087 A 
ATOM     10  S   UNL     1       3.200   1.271   0.049  0.00  0.00    -0.066 S 
BRANCH   5  11
ATOM     11  C   UNL     1       6.099   1.661   0.177  0.00  0.00    +0.346 C 
ATOM     12  O   UNL     1       7.214   1.176   0.122  0.00  0.00    -0.244 OA
BRANCH  11  13
ATOM     13  O   UNL     1       5.949   2.985   0.393  0.00  0.00    -0.461 OA
BRANCH  13  15
ATOM     14  C   UNL     1       7.164   5.042   0.760  0.00  0.00    +0.048 C 
ATOM     15  C   UNL     1       7.263   3.535   0.513  0.00  0.00    +0.229 C 
ENDBRANCH  13  15
ENDBRANCH  11  13
ENDBRANCH   5  11
BRANCH   8  16
ATOM     16  C   UNL     1       3.470  -2.562  -0.578  0.00  0.00    +0.342 C 
ATOM     17  O   UNL     1       3.432  -2.987  -1.717  0.00  0.00    -0.245 OA
BRANCH  16  18
ATOM     18  O   UNL     1       3.377  -3.414   0.463  0.00  0.00    -0.461 OA
BRANCH  18  19
ATOM     19  C   UNL     1       3.232  -4.839   0.224  0.00  0.00    +0.229 C 
ATOM     20  C   UNL     1       3.150  -5.575   1.563  0.00  0.00    +0.048 C 
ENDBRANCH  18  19
ENDBRANCH  16  18
ENDBRANCH   8  16
ENDBRANCH   1   9
BRANCH   3  21
ATOM     21  C   UNL     1      -1.219  -0.041  -0.266  0.00  0.00    +0.169 A 
ATOM     22  N   UNL     1      -1.715  -1.235  -0.481  0.00  0.00    -0.073 NA
ATOM     23  O   UNL     1      -2.924  -1.222  -0.501  0.00  0.00    -0.354 OA
ATOM     24  C   UNL     1      -3.411   0.016  -0.307  0.00  0.00    +0.168 A 
ATOM     25  C   UNL     1      -2.328   0.836  -0.146  0.00  0.00    +0.086 A 
BRANCH  24  26
ATOM     26  C   UNL     1      -4.834   0.413  -0.274  0.00  0.00    +0.024 A 
ATOM     27  C   UNL     1      -5.775  -0.403   0.349  0.00  0.00    +0.061 A 
ATOM     28  C   UNL     1      -7.115  -0.034   0.389  0.00  0.00    +0.163 A 
ATOM     29  O   UNL     1      -7.966  -0.894   1.008  0.00  0.00    -0.485 OA
ATOM     30  C   UNL     1      -9.163  -0.198   1.339  0.00  0.00    +0.270 C 
ATOM     31  C   UNL     1      -9.668   0.510   0.077  0.00  0.00    +0.270 C 
ATOM     32  O   UNL     1      -8.798   1.603  -0.198  0.00  0.00    -0.485 OA
ATOM     33  C   UNL     1      -7.516   1.155  -0.201  0.00  0.00    +0.162 A 
ATOM     34  C   UNL     1      -6.572   1.966  -0.833  0.00  0.00    +0.050 A 
ATOM     35  C   UNL     1      -5.245   1.605  -0.872  0.00  0.00    +0.015 A 
ENDBRANCH  24  26
ENDBRANCH   3  21
TORSDOF 9
