REMARK  Name = m96
REMARK  9 active torsions:
REMARK  status: ('A' for Active; 'I' for Inactive)
REMARK    1  A    between atoms: C_1  and  C_2
REMARK    2  A    between atoms: C_2  and  C_3
REMARK    3  A    between atoms: C_2  and  N_4
REMARK    4  A    between atoms: C_8  and  C_9
REMARK    5  A    between atoms: C_15  and  C_16
REMARK    6  A    between atoms: C_17  and  C_18
REMARK    7  A    between atoms: N_20  and  C_21
REMARK    8  A    between atoms: C_21  and  C_22
REMARK    9  A    between atoms: C_22  and  O_23
REMARK                            x       y       z     vdW  Elec       q    Type
REMARK                         _______ _______ _______ _____ _____    ______ ____
ROOT
ATOM      1  C   UNL     1       1.918  -0.941  -0.265  0.00  0.00    +0.011 A 
ATOM      2  C   UNL     1       2.321  -2.280  -0.128  0.00  0.00    +0.014 A 
ATOM      3  C   UNL     1       3.628  -2.476   0.383  0.00  0.00    +0.109 A 
ATOM      4  N   UNL     1       4.147  -3.669   0.564  0.00  0.00    -0.248 NA
ATOM      5  C   UNL     1       3.469  -4.761   0.268  0.00  0.00    +0.112 A 
ATOM      6  C   UNL     1       2.183  -4.673  -0.243  0.00  0.00    +0.020 A 
ATOM      7  S   UNL     1       4.211  -0.819   0.654  0.00  0.00    -0.064 S 
ATOM      8  C   UNL     1       1.598  -3.459  -0.450  0.00  0.00    +0.012 A 
ATOM      9  C   UNL     1       2.763   0.061   0.095  0.00  0.00    +0.082 A 
ENDROOT
BRANCH   1  13
ATOM     10  C   UNL     1      -2.820  -0.200   0.308  0.00  0.00    +0.265 C 
ATOM     11  N   UNL     1      -1.658   0.231  -0.222  0.00  0.00    -0.291 N 
ATOM     12  C   UNL     1      -0.361  -0.169   0.351  0.00  0.00    +0.144 C 
ATOM     13  C   UNL     1       0.548  -0.617  -0.804  0.00  0.00    +0.167 C 
ATOM     14  O   UNL     1       0.652   0.434  -1.763  0.00  0.00    -0.369 OA
ATOM     15  C   UNL     1      -0.619   0.571  -2.397  0.00  0.00    +0.179 C 
ATOM     16  C   UNL     1      -1.637   1.124  -1.393  0.00  0.00    +0.136 C 
ATOM     17  O   UNL     1      -2.820  -0.808   1.361  0.00  0.00    -0.268 OA
BRANCH  10  19
ATOM     18  N   UNL     1      -5.320   0.226   0.184  0.00  0.00    -0.257 N 
ATOM     19  C   UNL     1      -4.090   0.065  -0.388  0.00  0.00    +0.124 A 
ATOM     20  C   UNL     1      -4.278   0.191  -1.753  0.00  0.00    +0.054 A 
ATOM     21  C   UNL     1      -5.643   0.436  -1.918  0.00  0.00    +0.135 A 
ATOM     22  N   UNL     1      -6.195   0.443  -0.731  0.00  0.00    -0.179 NA
BRANCH  18  24
ATOM     23  C   UNL     1      -6.054   1.544   2.108  0.00  0.00    +0.032 C 
ATOM     24  C   UNL     1      -5.597   0.168   1.621  0.00  0.00    +0.102 C 
ATOM     25  C   UNL     1      -6.700  -0.859   1.886  0.00  0.00    +0.032 C 
ENDBRANCH  18  24
ENDBRANCH  10  19
ENDBRANCH   1  13
BRANCH   9  26
ATOM     26  C   UNL     1       2.539   1.512   0.039  0.00  0.00    +0.251 C 
ATOM     27  N   UNL     1       3.505   2.360   0.444  0.00  0.00    -0.309 N 
ATOM     28  H   UNL     1       4.349   2.012   0.773  0.00  0.00    +0.149 HD
ATOM     29  O   UNL     1       1.480   1.949  -0.373  0.00  0.00    -0.270 OA
BRANCH  27  30
ATOM     30  C   UNL     1       3.282   3.806   0.388  0.00  0.00    +0.132 C 
BRANCH  30  31
ATOM     31  C   UNL     1       4.525   4.535   0.901  0.00  0.00    +0.174 C 
BRANCH  31  32
ATOM     32  O   UNL     1       5.621   4.287   0.018  0.00  0.00    -0.393 OA
ATOM     33  H   UNL     1       6.383   4.763   0.377  0.00  0.00    +0.209 HD
ENDBRANCH  31  32
ENDBRANCH  30  31
ENDBRANCH  27  30
ENDBRANCH   9  26
TORSDOF 7
