REMARK  Name = m98
REMARK  4 active torsions:
REMARK  status: ('A' for Active; 'I' for Inactive)
REMARK    1  A    between atoms: C_2  and  C_4
REMARK    2  A    between atoms: C_4  and  C_5
REMARK    3  A    between atoms: C_10  and  C_12
REMARK    4  A    between atoms: C_17  and  C_18
REMARK                            x       y       z     vdW  Elec       q    Type
REMARK                         _______ _______ _______ _____ _____    ______ ____
ROOT
ATOM      1  C   UNL     1      -0.408  -2.118  -0.052  0.00  0.00    +0.082 A 
ATOM      2  C   UNL     1      -1.863  -2.100   0.127  0.00  0.00    +0.105 A 
ATOM      3  N   UNL     1      -2.265  -3.350   0.129  0.00  0.00    -0.173 NA
ATOM      4  N   UNL     1      -1.156  -4.187  -0.029  0.00  0.00    -0.283 N 
ATOM      5  H   UNL     1      -1.187  -5.156  -0.055  0.00  0.00    +0.188 HD
ATOM      6  C   UNL     1      -0.043  -3.447  -0.137  0.00  0.00    +0.118 A 
ENDROOT
BRANCH   2   7
ATOM      7  C   UNL     1      -2.719  -0.898   0.269  0.00  0.00    +0.007 A 
ATOM      8  C   UNL     1      -3.955  -0.841  -0.365  0.00  0.00    +0.059 A 
ATOM      9  C   UNL     1      -4.767   0.282  -0.232  0.00  0.00    +0.163 A 
ATOM     10  O   UNL     1      -5.954   0.256  -0.893  0.00  0.00    -0.485 OA
ATOM     11  C   UNL     1      -6.818   1.236  -0.326  0.00  0.00    +0.270 C 
ATOM     12  C   UNL     1      -6.062   2.569  -0.280  0.00  0.00    +0.270 C 
ATOM     13  O   UNL     1      -5.065   2.480   0.732  0.00  0.00    -0.485 OA
ATOM     14  C   UNL     1      -4.335   1.352   0.534  0.00  0.00    +0.162 A 
ATOM     15  C   UNL     1      -3.090   1.295   1.161  0.00  0.00    +0.050 A 
ATOM     16  C   UNL     1      -2.286   0.185   1.033  0.00  0.00    +0.014 A 
ENDBRANCH   2   7
BRANCH   1  22
ATOM     17  C   UNL     1       4.623   1.147  -0.548  0.00  0.00    +0.059 A 
ATOM     18  N   UNL     1       3.967   0.004  -0.511  0.00  0.00    -0.229 NA
ATOM     19  C   UNL     1       2.658  -0.028  -0.351  0.00  0.00    +0.165 A 
ATOM     20  N   UNL     1       1.814  -1.129  -0.285  0.00  0.00    -0.261 N 
ATOM     21  H   UNL     1       2.178  -2.025  -0.357  0.00  0.00    +0.157 HD
ATOM     22  C   UNL     1       0.488  -0.952  -0.122  0.00  0.00    +0.253 C 
ATOM     23  O   UNL     1       0.031   0.172  -0.032  0.00  0.00    -0.270 OA
ATOM     24  S   UNL     1       2.261   1.660  -0.251  0.00  0.00    -0.060 S 
ATOM     25  C   UNL     1       3.920   2.300  -0.429  0.00  0.00    +0.072 A 
BRANCH  17  26
ATOM     26  C   UNL     1       6.120   1.172  -0.727  0.00  0.00    +0.151 C 
BRANCH  26  30
ATOM     27  N   UNL     1       8.108   0.205   0.382  0.00  0.00    -0.329 N 
ATOM     28  H   UNL     1       8.657   0.653  -0.281  0.00  0.00    +0.145 HD
ATOM     29  H   UNL     1       8.525  -0.337   1.070  0.00  0.00    +0.145 HD
ATOM     30  C   UNL     1       6.767   0.330   0.343  0.00  0.00    +0.216 C 
ATOM     31  O   UNL     1       6.081  -0.234   1.168  0.00  0.00    -0.276 OA
ENDBRANCH  26  30
ENDBRANCH  17  26
ENDBRANCH   1  22
TORSDOF 4
