REMARK  Name = m99
REMARK  8 active torsions:
REMARK  status: ('A' for Active; 'I' for Inactive)
REMARK    1  A    between atoms: C_1  and  C_2
REMARK    2  A    between atoms: N_6  and  S_7
REMARK    3  A    between atoms: S_7  and  C_10
REMARK    4  A    between atoms: C_12  and  C_13
REMARK    5  A    between atoms: C_15  and  C_16
REMARK    6  A    between atoms: C_17  and  C_18
REMARK    7  A    between atoms: N_28  and  C_29
REMARK    8  A    between atoms: C_30  and  C_31
REMARK                            x       y       z     vdW  Elec       q    Type
REMARK                         _______ _______ _______ _____ _____    ______ ____
ROOT
ATOM      1  C   UNL     1      -2.567   1.144   0.890  0.00  0.00    +0.130 A 
ATOM      2  C   UNL     1      -2.648   2.233   0.091  0.00  0.00    +0.043 A 
ATOM      3  C   UNL     1      -3.877   3.077  -0.125  0.00  0.00    +0.065 C 
ATOM      4  N   UNL     1      -1.430   2.445  -0.476  0.00  0.00    -0.344 N 
ATOM      5  C   UNL     1      -1.096   3.529  -1.404  0.00  0.00    +0.149 C 
ATOM      6  C   UNL     1      -0.567   1.470  -0.039  0.00  0.00    +0.076 A 
ATOM      7  C   UNL     1      -1.258   0.652   0.811  0.00  0.00    +0.059 A 
ENDROOT
BRANCH   6   8
ATOM      8  C   UNL     1       0.846   1.329  -0.417  0.00  0.00    +0.126 A 
ATOM      9  S   UNL     1       2.040   0.105   0.104  0.00  0.00    -0.061 S 
ATOM     10  C   UNL     1       3.422   0.727  -0.846  0.00  0.00    +0.097 A 
ATOM     11  C   UNL     1       2.833   1.822  -1.466  0.00  0.00    +0.058 A 
ATOM     12  C   UNL     1       3.636   2.695  -2.396  0.00  0.00    +0.067 C 
ATOM     13  N   UNL     1       1.578   2.085  -1.235  0.00  0.00    -0.242 NA
BRANCH  10  14
ATOM     14  C   UNL     1       4.795   0.226  -0.938  0.00  0.00    +0.255 C 
ATOM     15  N   UNL     1       5.125  -0.944  -0.356  0.00  0.00    -0.297 N 
ATOM     16  C   UNL     1       6.542  -1.361  -0.361  0.00  0.00    +0.108 C 
ATOM     17  C   UNL     1       6.972  -1.954   0.997  0.00  0.00    +0.019 C 
ATOM     18  C   UNL     1       6.369  -1.159   2.129  0.00  0.00    +0.002 C 
ATOM     19  C   UNL     1       5.034  -1.780   2.528  0.00  0.00    +0.002 C 
ATOM     20  C   UNL     1       3.890  -1.327   1.721  0.00  0.00    +0.019 C 
ATOM     21  C   UNL     1       4.078  -1.742   0.241  0.00  0.00    +0.108 C 
ATOM     22  O   UNL     1       5.637   0.866  -1.540  0.00  0.00    -0.269 OA
ENDBRANCH  10  14
ENDBRANCH   6   8
BRANCH   1  23
ATOM     23  S   UNL     1      -3.878   0.462   1.850  0.00  0.00    +0.075 S 
ATOM     24  O   UNL     1      -3.347  -0.714   2.447  0.00  0.00    -0.150 OA
ATOM     25  O   UNL     1      -4.450   1.555   2.554  0.00  0.00    -0.150 OA
BRANCH  23  31
ATOM     26  C   UNL     1      -3.798  -4.132  -2.865  0.00  0.00    +0.045 C 
ATOM     27  C   UNL     1      -4.169  -3.040  -1.895  0.00  0.00    -0.032 A 
ATOM     28  C   UNL     1      -3.213  -2.492  -1.064  0.00  0.00    +0.116 A 
ATOM     29  N   UNL     1      -3.525  -1.532  -0.214  0.00  0.00    -0.239 NA
ATOM     30  C   UNL     1      -4.760  -1.065  -0.117  0.00  0.00    +0.138 A 
ATOM     31  N   UNL     1      -5.046  -0.057   0.796  0.00  0.00    -0.199 N 
ATOM     32  H   UNL     1      -5.929   0.344   0.817  0.00  0.00    +0.175 HD
ATOM     33  C   UNL     1      -5.775  -1.576  -0.920  0.00  0.00    +0.045 A 
ATOM     34  C   UNL     1      -5.477  -2.579  -1.824  0.00  0.00    +0.008 A 
ENDBRANCH  23  31
ENDBRANCH   1  23
TORSDOF 4
