REMARK  Name = m100
REMARK  7 active torsions:
REMARK  status: ('A' for Active; 'I' for Inactive)
REMARK    1  A    between atoms: C_1  and  C_2
REMARK    2  A    between atoms: C_8  and  N_9
REMARK    3  A    between atoms: C_10  and  C_12
REMARK    4  A    between atoms: C_12  and  N_13
REMARK    5  A    between atoms: C_18  and  C_19
REMARK    6  A    between atoms: C_21  and  C_22
REMARK    7  A    between atoms: C_30  and  C_31
REMARK                            x       y       z     vdW  Elec       q    Type
REMARK                         _______ _______ _______ _____ _____    ______ ____
ROOT
ATOM      1  N   UNL     1       1.922   2.174  -0.160  0.00  0.00    -0.290 N 
ATOM      2  C   UNL     1       0.994   1.471  -0.839  0.00  0.00    +0.263 A 
ATOM      3  O   UNL     1       1.263   0.945  -1.904  0.00  0.00    -0.267 OA
ATOM      4  C   UNL     1      -0.361   1.352  -0.254  0.00  0.00    +0.076 A 
ATOM      5  C   UNL     1      -0.539   2.016   0.980  0.00  0.00    +0.116 A 
ATOM      6  S   UNL     1      -2.236   1.682   1.381  0.00  0.00    -0.063 S 
ATOM      7  C   UNL     1      -2.652   0.702  -0.052  0.00  0.00    +0.082 A 
ATOM      8  N   UNL     1       0.446   2.688   1.562  0.00  0.00    -0.230 NA
ATOM      9  C   UNL     1      -1.483   0.683  -0.754  0.00  0.00    -0.017 A 
ATOM     10  C   UNL     1      -1.401  -0.057  -2.064  0.00  0.00    +0.046 C 
ATOM     11  C   UNL     1       1.631   2.769   1.023  0.00  0.00    +0.203 A 
ENDROOT
BRANCH   7  12
ATOM     12  C   UNL     1      -3.935   0.074  -0.392  0.00  0.00    +0.266 A 
ATOM     13  O   UNL     1      -4.206  -0.653  -1.489  0.00  0.00    -0.332 OA
ATOM     14  N   UNL     1      -5.358  -1.029  -1.460  0.00  0.00    -0.056 NA
ATOM     15  C   UNL     1      -5.953  -0.595  -0.379  0.00  0.00    +0.202 A 
ATOM     16  N   UNL     1      -5.049   0.119   0.322  0.00  0.00    -0.187 NA
BRANCH  15  17
ATOM     17  C   UNL     1      -7.366  -0.842   0.006  0.00  0.00    +0.025 A 
ATOM     18  C   UNL     1      -7.887  -0.326   1.195  0.00  0.00    +0.031 A 
ATOM     19  C   UNL     1      -9.207  -0.574   1.512  0.00  0.00    +0.111 A 
ATOM     20  N   UNL     1      -9.970  -1.297   0.715  0.00  0.00    -0.263 NA
ATOM     21  C   UNL     1      -9.516  -1.807  -0.413  0.00  0.00    +0.111 A 
ATOM     22  C   UNL     1      -8.209  -1.602  -0.808  0.00  0.00    +0.031 A 
ENDBRANCH  15  17
ENDBRANCH   7  12
BRANCH   1  23
ATOM     23  C   UNL     1       3.272   2.301  -0.715  0.00  0.00    +0.222 C 
BRANCH  23  26
ATOM     24  N   UNL     1       5.419   1.079  -0.597  0.00  0.00    -0.284 N 
ATOM     25  H   UNL     1       5.819   1.788  -1.125  0.00  0.00    +0.155 HD
ATOM     26  C   UNL     1       4.130   1.168  -0.215  0.00  0.00    +0.237 C 
ATOM     27  O   UNL     1       3.660   0.335   0.531  0.00  0.00    -0.274 OA
BRANCH  24  30
ATOM     28  C   UNL     1       8.247   1.368  -0.471  0.00  0.00    +0.045 C 
ATOM     29  C   UNL     1       7.565   0.060  -0.162  0.00  0.00    -0.029 A 
ATOM     30  C   UNL     1       6.182  -0.036  -0.233  0.00  0.00    +0.038 A 
ATOM     31  C   UNL     1       5.558  -1.245   0.047  0.00  0.00    +0.043 A 
ATOM     32  C   UNL     1       6.314  -2.344   0.407  0.00  0.00    +0.043 A 
ATOM     33 CL   UNL     1       5.535  -3.854   0.764  0.00  0.00    -0.083 Cl
ATOM     34  C   UNL     1       7.692  -2.243   0.482  0.00  0.00    +0.020 A 
ATOM     35  C   UNL     1       8.316  -1.042   0.198  0.00  0.00    +0.006 A 
ENDBRANCH  24  30
ENDBRANCH  23  26
ENDBRANCH   1  23
TORSDOF 5
