REMARK  Name = m101
REMARK  9 active torsions:
REMARK  status: ('A' for Active; 'I' for Inactive)
REMARK    1  A    between atoms: C_1  and  C_2
REMARK    2  A    between atoms: N_6  and  S_7
REMARK    3  A    between atoms: S_7  and  C_10
REMARK    4  A    between atoms: C_12  and  C_13
REMARK    5  A    between atoms: C_15  and  C_16
REMARK    6  A    between atoms: C_17  and  C_18
REMARK    7  A    between atoms: C_23  and  C_24
REMARK    8  A    between atoms: N_28  and  C_29
REMARK    9  A    between atoms: C_30  and  C_31
REMARK                            x       y       z     vdW  Elec       q    Type
REMARK                         _______ _______ _______ _____ _____    ______ ____
ROOT
ATOM      1  C   UNL     1      -2.872   1.152   0.765  0.00  0.00    +0.130 A 
ATOM      2  C   UNL     1      -3.001   2.132  -0.158  0.00  0.00    +0.043 A 
ATOM      3  C   UNL     1      -4.296   2.780  -0.578  0.00  0.00    +0.065 C 
ATOM      4  N   UNL     1      -1.767   2.442  -0.637  0.00  0.00    -0.344 N 
ATOM      5  C   UNL     1      -1.473   3.458  -1.651  0.00  0.00    +0.149 C 
ATOM      6  C   UNL     1      -0.841   1.639  -0.015  0.00  0.00    +0.076 A 
ATOM      7  C   UNL     1      -1.512   0.830   0.860  0.00  0.00    +0.059 A 
ENDROOT
BRANCH   6   8
ATOM      8  C   UNL     1       0.609   1.647  -0.249  0.00  0.00    +0.126 A 
ATOM      9  S   UNL     1       1.883   0.651   0.514  0.00  0.00    -0.061 S 
ATOM     10  C   UNL     1       3.269   1.347  -0.376  0.00  0.00    +0.097 A 
ATOM     11  C   UNL     1       2.619   2.285  -1.169  0.00  0.00    +0.058 A 
ATOM     12  C   UNL     1       3.401   3.154  -2.119  0.00  0.00    +0.067 C 
ATOM     13  N   UNL     1       1.324   2.404  -1.081  0.00  0.00    -0.242 NA
BRANCH  10  14
ATOM     14  C   UNL     1       4.695   1.024  -0.288  0.00  0.00    +0.255 C 
ATOM     15  N   UNL     1       5.103  -0.032   0.443  0.00  0.00    -0.297 N 
ATOM     16  C   UNL     1       6.481  -0.108   0.944  0.00  0.00    +0.108 C 
ATOM     17  C   UNL     1       7.097  -1.437   0.508  0.00  0.00    +0.022 C 
ATOM     18  C   UNL     1       6.197  -2.587   0.965  0.00  0.00    -0.011 C 
ATOM     19  C   UNL     1       6.828  -3.920   0.556  0.00  0.00    +0.007 C 
ATOM     20  C   UNL     1       4.821  -2.452   0.309  0.00  0.00    +0.022 C 
ATOM     21  C   UNL     1       4.178  -1.133   0.748  0.00  0.00    +0.108 C 
ATOM     22  O   UNL     1       5.511   1.710  -0.875  0.00  0.00    -0.269 OA
ENDBRANCH  10  14
ENDBRANCH   6   8
BRANCH   1  23
ATOM     23  S   UNL     1      -4.181   0.406   1.679  0.00  0.00    +0.075 S 
ATOM     24  O   UNL     1      -3.574  -0.608   2.468  0.00  0.00    -0.150 OA
ATOM     25  O   UNL     1      -4.962   1.482   2.182  0.00  0.00    -0.150 OA
BRANCH  23  31
ATOM     26  C   UNL     1      -2.994  -4.614  -2.411  0.00  0.00    +0.045 C 
ATOM     27  C   UNL     1      -3.607  -3.487  -1.619  0.00  0.00    -0.032 A 
ATOM     28  C   UNL     1      -2.826  -2.721  -0.777  0.00  0.00    +0.116 A 
ATOM     29  N   UNL     1      -3.351  -1.729  -0.083  0.00  0.00    -0.239 NA
ATOM     30  C   UNL     1      -4.640  -1.437  -0.156  0.00  0.00    +0.138 A 
ATOM     31  N   UNL     1      -5.152  -0.387   0.597  0.00  0.00    -0.199 N 
ATOM     32  H   UNL     1      -6.078  -0.118   0.488  0.00  0.00    +0.175 HD
ATOM     33  C   UNL     1      -5.487  -2.171  -0.980  0.00  0.00    +0.045 A 
ATOM     34  C   UNL     1      -4.964  -3.213  -1.724  0.00  0.00    +0.008 A 
ENDBRANCH  23  31
ENDBRANCH   1  23
TORSDOF 4
