REMARK  Name = m102
REMARK  7 active torsions:
REMARK  status: ('A' for Active; 'I' for Inactive)
REMARK    1  A    between atoms: C_1  and  O_2
REMARK    2  A    between atoms: O_2  and  C_3
REMARK    3  A    between atoms: C_7  and  C_8
REMARK    4  A    between atoms: C_10  and  C_11
REMARK    5  A    between atoms: C_17  and  C_18
REMARK    6  A    between atoms: C_24  and  C_25
REMARK    7  A    between atoms: C_27  and  C_28
REMARK                            x       y       z     vdW  Elec       q    Type
REMARK                         _______ _______ _______ _____ _____    ______ ____
ROOT
ATOM      1  C   UNL     1       3.207  -0.108  -0.196  0.00  0.00    +0.075 A 
ATOM      2  N   UNL     1       2.280   0.724  -0.631  0.00  0.00    -0.228 NA
ATOM      3  C   UNL     1       0.987   0.374  -0.624  0.00  0.00    +0.157 A 
ATOM      4  N   UNL     1       0.598  -0.856  -0.154  0.00  0.00    -0.209 N 
ATOM      5  N   UNL     1      -0.795  -0.937  -0.265  0.00  0.00    -0.160 NA
ATOM      6  C   UNL     1      -1.248   0.194  -0.781  0.00  0.00    +0.150 A 
ATOM      7  C   UNL     1       1.537  -1.738   0.308  0.00  0.00    +0.149 A 
ATOM      8  C   UNL     1      -0.162   1.043  -1.020  0.00  0.00    +0.083 A 
ATOM      9  C   UNL     1       2.840  -1.383   0.295  0.00  0.00    +0.060 A 
ENDROOT
BRANCH   6  10
ATOM     10  C   UNL     1      -2.666   0.509  -1.058  0.00  0.00    +0.267 C 
ATOM     11  N   UNL     1      -3.624  -0.397  -0.781  0.00  0.00    -0.288 N 
ATOM     12  C   UNL     1      -5.066  -0.213  -1.000  0.00  0.00    +0.129 C 
ATOM     13  C   UNL     1      -5.766  -1.519  -0.566  0.00  0.00    +0.030 C 
ATOM     14  C   UNL     1      -4.627  -2.569  -0.649  0.00  0.00    +0.021 C 
ATOM     15  C   UNL     1      -3.400  -1.735  -0.203  0.00  0.00    +0.109 C 
ATOM     16  O   UNL     1      -2.967   1.586  -1.535  0.00  0.00    -0.268 OA
BRANCH  12  17
ATOM     17  C   UNL     1      -5.574   0.940  -0.173  0.00  0.00    +0.104 A 
ATOM     18  N   UNL     1      -6.815   1.307  -0.026  0.00  0.00    -0.081 NA
ATOM     19  O   UNL     1      -6.911   2.267   0.703  0.00  0.00    -0.360 OA
ATOM     20  C   UNL     1      -5.712   2.678   1.138  0.00  0.00    +0.135 A 
ATOM     21  C   UNL     1      -5.434   3.843   2.053  0.00  0.00    +0.089 C 
ATOM     22  C   UNL     1      -4.798   1.840   0.592  0.00  0.00    +0.072 A 
ENDBRANCH  12  17
ENDBRANCH   6  10
BRANCH   1  25
ATOM     23  C   UNL     1       6.330   1.968   0.103  0.00  0.00    +0.121 A 
ATOM     24  C   UNL     1       4.996   1.596   0.130  0.00  0.00    +0.055 A 
ATOM     25  C   UNL     1       4.633   0.295  -0.216  0.00  0.00    +0.004 A 
ATOM     26  C   UNL     1       5.615  -0.627  -0.575  0.00  0.00    +0.010 A 
ATOM     27  C   UNL     1       6.943  -0.248  -0.593  0.00  0.00    +0.004 A 
ATOM     28  C   UNL     1       7.302   1.044  -0.255  0.00  0.00    +0.045 A 
BRANCH  23  30
ATOM     29  C   UNL     1       8.110   3.308   0.318  0.00  0.00    +0.277 C 
ATOM     30  O   UNL     1       6.688   3.237   0.434  0.00  0.00    -0.495 OA
ENDBRANCH  23  30
ENDBRANCH   1  25
BRANCH   7  31
ATOM     31  C   UNL     1       1.121  -3.091   0.827  0.00  0.00    +0.434 C 
ATOM     32  F   UNL     1       0.469  -3.799  -0.189  0.00  0.00    -0.164 F 
ATOM     33  F   UNL     1       0.253  -2.927   1.912  0.00  0.00    -0.164 F 
ATOM     34  F   UNL     1       2.253  -3.801   1.238  0.00  0.00    -0.164 F 
ENDBRANCH   7  31
TORSDOF 5
