REMARK  Name = m103
REMARK  3 active torsions:
REMARK  status: ('A' for Active; 'I' for Inactive)
REMARK    1  A    between atoms: C_5  and  N_6
REMARK    2  A    between atoms: C_11  and  N_12
REMARK    3  A    between atoms: N_12  and  C_13
REMARK                            x       y       z     vdW  Elec       q    Type
REMARK                         _______ _______ _______ _____ _____    ______ ____
ROOT
ATOM      1  N   UNL     1       2.695  -0.501  -0.353  0.00  0.00    -0.282 N 
ATOM      2  C   UNL     1       1.480  -0.931   0.025  0.00  0.00    +0.248 C 
ATOM      3  O   UNL     1       1.238  -2.042   0.456  0.00  0.00    -0.270 OA
ATOM      4  C   UNL     1       0.479   0.139  -0.155  0.00  0.00    +0.043 A 
ATOM      5  C   UNL     1       1.128   1.262  -0.674  0.00  0.00    -0.018 A 
ATOM      6  C   UNL     1       0.422   2.413  -0.944  0.00  0.00    +0.008 A 
ATOM      7  C   UNL     1      -0.939   2.464  -0.701  0.00  0.00    +0.023 A 
ATOM      8  C   UNL     1      -1.597   1.354  -0.185  0.00  0.00    +0.033 A 
ATOM      9  C   UNL     1      -0.894   0.191   0.089  0.00  0.00    +0.036 A 
ATOM     10  C   UNL     1       2.582   0.886  -0.819  0.00  0.00    +0.144 C 
ENDROOT
BRANCH   1  17
ATOM     11  O   UNL     1       6.428   1.185   1.724  0.00  0.00    -0.275 OA
ATOM     12  C   UNL     1       5.680   0.449   1.117  0.00  0.00    +0.219 C 
ATOM     13  N   UNL     1       5.830   0.306  -0.209  0.00  0.00    -0.255 N 
ATOM     14  H   UNL     1       6.535   0.801  -0.654  0.00  0.00    +0.158 HD
ATOM     15  C   UNL     1       5.050  -0.503  -0.941  0.00  0.00    +0.240 C 
ATOM     16  O   UNL     1       5.246  -0.598  -2.134  0.00  0.00    -0.273 OA
ATOM     17  C   UNL     1       3.930  -1.289  -0.312  0.00  0.00    +0.163 C 
ATOM     18  C   UNL     1       4.291  -1.601   1.144  0.00  0.00    +0.041 C 
ATOM     19  C   UNL     1       4.597  -0.283   1.864  0.00  0.00    +0.098 C 
ENDBRANCH   1  17
BRANCH   8  20
ATOM     20  N   UNL     1      -2.973   1.410   0.059  0.00  0.00    -0.299 N 
ATOM     21  H   UNL     1      -3.383   2.245   0.334  0.00  0.00    +0.154 HD
BRANCH  20  22
ATOM     22  C   UNL     1      -3.750   0.274  -0.093  0.00  0.00    +0.135 A 
ATOM     23  C   UNL     1      -5.108   0.279   0.259  0.00  0.00    +0.059 A 
ATOM     24  C   UNL     1      -5.856  -0.900   0.081  0.00  0.00    +0.143 A 
ATOM     25  N   UNL     1      -7.134  -0.631   0.486  0.00  0.00    -0.346 N 
ATOM     26  C   UNL     1      -7.229   0.670   0.909  0.00  0.00    +0.085 A 
ATOM     27  H   UNL     1      -7.866  -1.268   0.477  0.00  0.00    +0.167 HD
ATOM     28  N   UNL     1      -5.241  -1.976  -0.405  0.00  0.00    -0.218 NA
ATOM     29  C   UNL     1      -3.963  -1.937  -0.717  0.00  0.00    +0.225 A 
ATOM     30  C   UNL     1      -6.036   1.275   0.792  0.00  0.00    +0.032 A 
ATOM     31  N   UNL     1      -3.226  -0.851  -0.571  0.00  0.00    -0.220 NA
ENDBRANCH  20  22
ENDBRANCH   8  20
TORSDOF 3
