REMARK  Name = m104
REMARK  9 active torsions:
REMARK  status: ('A' for Active; 'I' for Inactive)
REMARK    1  A    between atoms: C_1  and  C_2
REMARK    2  A    between atoms: C_2  and  S_3
REMARK    3  A    between atoms: S_3  and  C_4
REMARK    4  A    between atoms: C_7  and  C_8
REMARK    5  A    between atoms: N_10  and  C_11
REMARK    6  A    between atoms: N_15  and  S_16
REMARK    7  A    between atoms: S_16  and  C_19
REMARK    8  A    between atoms: N_28  and  C_29
REMARK    9  A    between atoms: C_29  and  C_30
REMARK                            x       y       z     vdW  Elec       q    Type
REMARK                         _______ _______ _______ _____ _____    ______ ____
ROOT
ATOM      1  C   UNL     1       1.089  -1.591  -0.304  0.00  0.00    +0.134 A 
ATOM      2  C   UNL     1      -0.176  -1.672   0.298  0.00  0.00    +0.020 A 
ATOM      3  C   UNL     1      -0.673  -0.935   1.519  0.00  0.00    +0.148 C 
ATOM      4  N   UNL     1      -2.132  -1.137   1.588  0.00  0.00    -0.172 NA
ATOM      5  C   UNL     1      -2.661  -2.488   1.349  0.00  0.00    +0.116 C 
ATOM      6  C   UNL     1      -2.357  -2.903  -0.094  0.00  0.00    +0.072 C 
ATOM      7  C   UNL     1      -0.926  -2.549  -0.413  0.00  0.00    +0.045 A 
ATOM      8  N   UNL     1      -0.167  -3.020  -1.420  0.00  0.00    -0.270 N 
ATOM      9  C   UNL     1      -0.585  -4.001  -2.424  0.00  0.00    +0.172 C 
ATOM     10  N   UNL     1       1.093  -2.410  -1.340  0.00  0.00    -0.168 NA
ENDROOT
BRANCH   1  13
ATOM     11  C   UNL     1       4.161   0.234   0.315  0.00  0.00    +0.192 A 
ATOM     12  N   UNL     1       3.458  -0.662  -0.440  0.00  0.00    -0.301 N 
ATOM     13  C   UNL     1       2.216  -0.746   0.145  0.00  0.00    +0.185 A 
ATOM     14  N   UNL     1       2.219   0.069   1.173  0.00  0.00    -0.127 NA
ATOM     15  N   UNL     1       3.363   0.646   1.274  0.00  0.00    -0.122 NA
BRANCH  12  16
ATOM     16  C   UNL     1       3.932  -1.388  -1.621  0.00  0.00    +0.122 C 
ATOM     17  C   UNL     1       3.626  -0.572  -2.878  0.00  0.00    +0.027 C 
ENDBRANCH  12  16
BRANCH  11  18
ATOM     18  S   UNL     1       5.826   0.747   0.049  0.00  0.00    -0.086 S 
BRANCH  18  20
ATOM     19  C   UNL     1       7.429   2.505   1.390  0.00  0.00    +0.016 C 
ATOM     20  C   UNL     1       6.018   1.914   1.418  0.00  0.00    +0.074 C 
ENDBRANCH  18  20
ENDBRANCH  11  18
ENDBRANCH   1  13
BRANCH   4  21
ATOM     21  S   UNL     1      -3.148   0.125   1.927  0.00  0.00    +0.061 S 
ATOM     22  O   UNL     1      -2.354   1.090   2.603  0.00  0.00    -0.153 OA
ATOM     23  O   UNL     1      -4.338  -0.463   2.434  0.00  0.00    -0.153 OA
BRANCH  21  24
ATOM     24  C   UNL     1      -3.597   0.866   0.392  0.00  0.00    +0.107 A 
ATOM     25  C   UNL     1      -2.836   1.896  -0.126  0.00  0.00    +0.048 A 
ATOM     26  C   UNL     1      -3.185   2.475  -1.334  0.00  0.00    +0.043 A 
ATOM     27 CL   UNL     1      -2.226   3.765  -1.989  0.00  0.00    -0.083 Cl
ATOM     28  C   UNL     1      -4.303   2.028  -2.016  0.00  0.00    +0.020 A 
ATOM     29  C   UNL     1      -5.066   1.001  -1.494  0.00  0.00    +0.003 A 
ATOM     30  C   UNL     1      -4.714   0.421  -0.290  0.00  0.00    +0.028 A 
ENDBRANCH  21  24
ENDBRANCH   4  21
TORSDOF 6
