REMARK  Name = m105
REMARK  11 active torsions:
REMARK  status: ('A' for Active; 'I' for Inactive)
REMARK    1  A    between atoms: C_1  and  C_2
REMARK    2  A    between atoms: C_2  and  O_3
REMARK    3  A    between atoms: O_3  and  C_4
REMARK    4  A    between atoms: C_4  and  C_6
REMARK    5  A    between atoms: C_8  and  C_9
REMARK    6  A    between atoms: N_15  and  C_16
REMARK    7  A    between atoms: C_16  and  C_17
REMARK    8  A    between atoms: C_19  and  C_20
REMARK    9  A    between atoms: C_23  and  C_24
REMARK   10  A    between atoms: C_28  and  C_29
REMARK   11  A    between atoms: N_32  and  C_33
REMARK                            x       y       z     vdW  Elec       q    Type
REMARK                         _______ _______ _______ _____ _____    ______ ____
ROOT
ATOM      1  C   UNL     1       3.591  -0.189  -0.675  0.00  0.00    +0.077 A 
ATOM      2  C   UNL     1       2.496  -0.704   0.036  0.00  0.00    +0.096 A 
ATOM      3  C   UNL     1       1.578   0.165   0.791  0.00  0.00    +0.267 A 
ATOM      4  N   UNL     1       0.542  -0.411   1.440  0.00  0.00    -0.254 N 
ATOM      5  C   UNL     1       0.352  -1.739   1.399  0.00  0.00    +0.334 A 
ATOM      6  N   UNL     1       1.165  -2.573   0.729  0.00  0.00    -0.281 N 
ATOM      7  C   UNL     1       0.889  -4.012   0.733  0.00  0.00    +0.155 C 
ATOM      8  O   UNL     1      -0.595  -2.209   1.998  0.00  0.00    -0.246 OA
ATOM      9  O   UNL     1       1.747   1.369   0.829  0.00  0.00    -0.267 OA
ATOM     10  C   UNL     1       2.254  -2.088   0.025  0.00  0.00    +0.151 A 
ATOM     11  N   UNL     1       3.059  -2.898  -0.643  0.00  0.00    -0.234 NA
ATOM     12  C   UNL     1       4.098  -2.446  -1.315  0.00  0.00    +0.041 A 
ATOM     13  C   UNL     1       4.976  -3.422  -2.054  0.00  0.00    +0.065 C 
ATOM     14  C   UNL     1       4.404  -1.095  -1.360  0.00  0.00    +0.039 A 
ENDROOT
BRANCH   1  15
ATOM     15  C   UNL     1       3.879   1.264  -0.693  0.00  0.00    +0.340 C 
ATOM     16  O   UNL     1       3.009   2.051  -1.004  0.00  0.00    -0.245 OA
BRANCH  15  17
ATOM     17  O   UNL     1       5.106   1.712  -0.365  0.00  0.00    -0.461 OA
BRANCH  17  19
ATOM     18  C   UNL     1       6.843   3.373   0.027  0.00  0.00    +0.048 C 
ATOM     19  C   UNL     1       5.388   3.136  -0.383  0.00  0.00    +0.229 C 
ENDBRANCH  17  19
ENDBRANCH  15  17
ENDBRANCH   1  15
BRANCH   4  20
ATOM     20  C   UNL     1      -0.389   0.427   2.200  0.00  0.00    +0.188 C 
BRANCH  20  21
ATOM     21  C   UNL     1      -1.518   0.865   1.302  0.00  0.00    +0.103 A 
ATOM     22  C   UNL     1      -1.546   1.983   0.553  0.00  0.00    +0.127 A 
ATOM     23  C   UNL     1      -0.458   3.020   0.454  0.00  0.00    +0.088 C 
ATOM     24  O   UNL     1      -2.726   1.998  -0.098  0.00  0.00    -0.440 OA
ATOM     25  C   UNL     1      -3.408   0.897   0.265  0.00  0.00    +0.228 A 
ATOM     26  N   UNL     1      -2.675   0.213   1.112  0.00  0.00    -0.212 NA
BRANCH  25  27
ATOM     27  C   UNL     1      -4.756   0.521  -0.210  0.00  0.00    +0.037 A 
ATOM     28  C   UNL     1      -5.354  -0.656   0.241  0.00  0.00    +0.013 A 
ATOM     29  C   UNL     1      -6.615  -0.999  -0.203  0.00  0.00    +0.004 A 
ATOM     30  C   UNL     1      -7.282  -0.184  -1.100  0.00  0.00    -0.050 A 
ATOM     31  C   UNL     1      -8.656  -0.568  -1.585  0.00  0.00    +0.044 C 
ATOM     32  C   UNL     1      -6.691   0.982  -1.555  0.00  0.00    +0.004 A 
ATOM     33  C   UNL     1      -5.434   1.339  -1.116  0.00  0.00    +0.013 A 
ENDBRANCH  25  27
ENDBRANCH  20  21
ENDBRANCH   4  20
TORSDOF 6
