REMARK  Name = m106
REMARK  9 active torsions:
REMARK  status: ('A' for Active; 'I' for Inactive)
REMARK    1  A    between atoms: C_2  and  C_3
REMARK    2  A    between atoms: C_3  and  N_4
REMARK    3  A    between atoms: C_6  and  N_7
REMARK    4  A    between atoms: N_7  and  C_8
REMARK    5  A    between atoms: C_8  and  C_9
REMARK    6  A    between atoms: C_14  and  C_15
REMARK    7  A    between atoms: N_27  and  C_28
REMARK    8  A    between atoms: C_28  and  C_29
REMARK    9  A    between atoms: C_29  and  O_30
REMARK                            x       y       z     vdW  Elec       q    Type
REMARK                         _______ _______ _______ _____ _____    ______ ____
ROOT
ATOM      1  C   UNL     1       0.945  -2.074   0.872  0.00  0.00    +0.140 C 
ENDROOT
BRANCH   1   2
ATOM      2  C   UNL     1       2.117  -2.754   0.212  0.00  0.00    +0.015 A 
ATOM      3  C   UNL     1       3.267  -2.119  -0.295  0.00  0.00    +0.097 A 
ATOM      4  N   UNL     1       4.059  -3.047  -0.787  0.00  0.00    -0.174 NA
ATOM      5  N   UNL     1       3.433  -4.289  -0.615  0.00  0.00    -0.284 N 
ATOM      6  H   UNL     1       3.789  -5.149  -0.889  0.00  0.00    +0.188 HD
ATOM      7  C   UNL     1       2.248  -4.081  -0.003  0.00  0.00    +0.110 A 
BRANCH   3   8
ATOM      8  C   UNL     1       3.541  -0.660  -0.271  0.00  0.00    +0.006 A 
ATOM      9  C   UNL     1       4.819  -0.194   0.017  0.00  0.00    +0.059 A 
ATOM     10  C   UNL     1       5.086   1.172   0.036  0.00  0.00    +0.163 A 
ATOM     11  O   UNL     1       6.359   1.539   0.335  0.00  0.00    -0.485 OA
ATOM     12  C   UNL     1       6.567   2.878  -0.101  0.00  0.00    +0.270 C 
ATOM     13  C   UNL     1       5.431   3.744   0.457  0.00  0.00    +0.270 C 
ATOM     14  O   UNL     1       4.238   3.420  -0.248  0.00  0.00    -0.485 OA
ATOM     15  C   UNL     1       4.067   2.072  -0.229  0.00  0.00    +0.162 A 
ATOM     16  C   UNL     1       2.784   1.600  -0.508  0.00  0.00    +0.050 A 
ATOM     17  C   UNL     1       2.518   0.250  -0.529  0.00  0.00    +0.014 A 
ENDBRANCH   3   8
ENDBRANCH   1   2
BRANCH   1  18
ATOM     18  N   UNL     1       0.069  -1.504  -0.156  0.00  0.00    -0.337 N 
ATOM     19  H   UNL     1       0.295  -1.603  -1.094  0.00  0.00    +0.146 HD
BRANCH  18  23
ATOM     20  N   UNL     1      -2.973   0.320   0.134  0.00  0.00    -0.261 N 
ATOM     21  N   UNL     1      -2.661   0.085   1.479  0.00  0.00    -0.177 NA
ATOM     22  C   UNL     1      -1.545  -0.597   1.530  0.00  0.00    +0.157 A 
ATOM     23  C   UNL     1      -1.100  -0.814   0.219  0.00  0.00    +0.065 A 
ATOM     24  C   UNL     1      -1.994  -0.241  -0.625  0.00  0.00    +0.131 A 
BRANCH  20  25
ATOM     25  C   UNL     1      -4.143   1.046  -0.366  0.00  0.00    +0.239 C 
BRANCH  25  27
ATOM     26  O   UNL     1      -5.321  -0.536   0.928  0.00  0.00    -0.274 OA
ATOM     27  C   UNL     1      -5.397   0.421   0.188  0.00  0.00    +0.235 C 
ATOM     28  N   UNL     1      -6.603   0.924  -0.143  0.00  0.00    -0.312 N 
ATOM     29  H   UNL     1      -6.664   1.690  -0.735  0.00  0.00    +0.149 HD
BRANCH  28  30
ATOM     30  C   UNL     1      -7.823   0.313   0.391  0.00  0.00    +0.132 C 
BRANCH  30  31
ATOM     31  C   UNL     1      -9.044   1.068  -0.136  0.00  0.00    +0.174 C 
BRANCH  31  32
ATOM     32  O   UNL     1      -9.130   0.906  -1.553  0.00  0.00    -0.393 OA
ATOM     33  H   UNL     1      -9.911   1.397  -1.844  0.00  0.00    +0.209 HD
ENDBRANCH  31  32
ENDBRANCH  30  31
ENDBRANCH  28  30
ENDBRANCH  25  27
ENDBRANCH  20  25
ENDBRANCH  18  23
ENDBRANCH   1  18
TORSDOF 9
