REMARK  Name = m107
REMARK  8 active torsions:
REMARK  status: ('A' for Active; 'I' for Inactive)
REMARK    1  A    between atoms: C_1  and  C_2
REMARK    2  A    between atoms: N_6  and  S_7
REMARK    3  A    between atoms: S_7  and  C_10
REMARK    4  A    between atoms: C_12  and  C_13
REMARK    5  A    between atoms: C_15  and  C_16
REMARK    6  A    between atoms: C_17  and  C_18
REMARK    7  A    between atoms: N_27  and  C_28
REMARK    8  A    between atoms: C_29  and  C_30
REMARK                            x       y       z     vdW  Elec       q    Type
REMARK                         _______ _______ _______ _____ _____    ______ ____
ROOT
ATOM      1  C   UNL     1      -2.596   1.234   0.730  0.00  0.00    +0.130 A 
ATOM      2  C   UNL     1      -2.651   2.196  -0.219  0.00  0.00    +0.043 A 
ATOM      3  C   UNL     1      -3.895   2.920  -0.667  0.00  0.00    +0.065 C 
ATOM      4  N   UNL     1      -1.395   2.408  -0.695  0.00  0.00    -0.344 N 
ATOM      5  C   UNL     1      -1.025   3.374  -1.732  0.00  0.00    +0.149 C 
ATOM      6  C   UNL     1      -0.531   1.560  -0.044  0.00  0.00    +0.076 A 
ATOM      7  C   UNL     1      -1.262   0.823   0.846  0.00  0.00    +0.059 A 
ENDROOT
BRANCH   6   8
ATOM      8  C   UNL     1       0.918   1.462  -0.265  0.00  0.00    +0.126 A 
ATOM      9  S   UNL     1       2.114   0.401   0.534  0.00  0.00    -0.061 S 
ATOM     10  C   UNL     1       3.552   0.977  -0.361  0.00  0.00    +0.097 A 
ATOM     11  C   UNL     1       2.973   1.935  -1.183  0.00  0.00    +0.058 A 
ATOM     12  C   UNL     1       3.821   2.724  -2.149  0.00  0.00    +0.067 C 
ATOM     13  N   UNL     1       1.689   2.145  -1.110  0.00  0.00    -0.242 NA
BRANCH  10  14
ATOM     14  C   UNL     1       4.951   0.559  -0.252  0.00  0.00    +0.255 C 
ATOM     15  N   UNL     1       5.279  -0.504   0.509  0.00  0.00    -0.297 N 
ATOM     16  C   UNL     1       6.646  -0.662   1.024  0.00  0.00    +0.108 C 
ATOM     17  C   UNL     1       7.172  -2.040   0.628  0.00  0.00    +0.019 C 
ATOM     18  C   UNL     1       6.191  -3.114   1.107  0.00  0.00    +0.003 C 
ATOM     19  C   UNL     1       4.832  -2.902   0.436  0.00  0.00    +0.019 C 
ATOM     20  C   UNL     1       4.279  -1.530   0.834  0.00  0.00    +0.108 C 
ATOM     21  O   UNL     1       5.817   1.171  -0.849  0.00  0.00    -0.269 OA
ENDBRANCH  10  14
ENDBRANCH   6   8
BRANCH   1  22
ATOM     22  S   UNL     1      -3.960   0.605   1.651  0.00  0.00    +0.075 S 
ATOM     23  O   UNL     1      -3.430  -0.427   2.471  0.00  0.00    -0.150 OA
ATOM     24  O   UNL     1      -4.668   1.745   2.119  0.00  0.00    -0.150 OA
BRANCH  22  30
ATOM     25  C   UNL     1      -3.093  -4.591  -2.297  0.00  0.00    +0.045 C 
ATOM     26  C   UNL     1      -3.633  -3.404  -1.540  0.00  0.00    -0.032 A 
ATOM     27  C   UNL     1      -2.807  -2.672  -0.711  0.00  0.00    +0.116 A 
ATOM     28  N   UNL     1      -3.267  -1.628  -0.048  0.00  0.00    -0.239 NA
ATOM     29  C   UNL     1      -4.532  -1.250  -0.140  0.00  0.00    +0.138 A 
ATOM     30  N   UNL     1      -4.976  -0.147   0.581  0.00  0.00    -0.199 N 
ATOM     31  H   UNL     1      -5.880   0.181   0.458  0.00  0.00    +0.175 HD
ATOM     32  C   UNL     1      -5.422  -1.946  -0.952  0.00  0.00    +0.045 A 
ATOM     33  C   UNL     1      -4.967  -3.041  -1.664  0.00  0.00    +0.008 A 
ENDBRANCH  22  30
ENDBRANCH   1  22
TORSDOF 4
