REMARK  Name = m108
REMARK  9 active torsions:
REMARK  status: ('A' for Active; 'I' for Inactive)
REMARK    1  A    between atoms: C_1  and  C_2
REMARK    2  A    between atoms: C_2  and  O_3
REMARK    3  A    between atoms: O_3  and  C_4
REMARK    4  A    between atoms: C_9  and  N_10
REMARK    5  A    between atoms: C_11  and  C_13
REMARK    6  A    between atoms: C_13  and  N_14
REMARK    7  A    between atoms: C_19  and  C_20
REMARK    8  A    between atoms: C_22  and  C_23
REMARK    9  A    between atoms: C_31  and  C_32
REMARK                            x       y       z     vdW  Elec       q    Type
REMARK                         _______ _______ _______ _____ _____    ______ ____
ROOT
ATOM      1  N   UNL     1       1.831   1.618  -0.435  0.00  0.00    -0.290 N 
ATOM      2  C   UNL     1       0.864   0.844  -0.965  0.00  0.00    +0.263 A 
ATOM      3  O   UNL     1       1.111   0.070  -1.874  0.00  0.00    -0.267 OA
ATOM      4  C   UNL     1      -0.504   0.954  -0.413  0.00  0.00    +0.076 A 
ATOM      5  C   UNL     1      -0.652   1.893   0.632  0.00  0.00    +0.116 A 
ATOM      6  S   UNL     1      -2.375   1.776   1.045  0.00  0.00    -0.063 S 
ATOM      7  C   UNL     1      -2.840   0.525  -0.141  0.00  0.00    +0.082 A 
ATOM      8  N   UNL     1       0.370   2.612   1.078  0.00  0.00    -0.230 NA
ATOM      9  C   UNL     1      -1.665   0.267  -0.782  0.00  0.00    -0.017 A 
ATOM     10  C   UNL     1      -1.617  -0.757  -1.887  0.00  0.00    +0.046 C 
ATOM     11  C   UNL     1       1.567   2.487   0.572  0.00  0.00    +0.203 A 
ENDROOT
BRANCH   7  12
ATOM     12  C   UNL     1      -4.160  -0.075  -0.369  0.00  0.00    +0.266 A 
ATOM     13  O   UNL     1      -4.467  -1.014  -1.281  0.00  0.00    -0.332 OA
ATOM     14  N   UNL     1      -5.644  -1.294  -1.204  0.00  0.00    -0.056 NA
ATOM     15  C   UNL     1      -6.222  -0.585  -0.269  0.00  0.00    +0.202 A 
ATOM     16  N   UNL     1      -5.279   0.207   0.280  0.00  0.00    -0.187 NA
BRANCH  15  17
ATOM     17  C   UNL     1      -7.655  -0.640   0.117  0.00  0.00    +0.025 A 
ATOM     18  C   UNL     1      -8.154   0.168   1.141  0.00  0.00    +0.031 A 
ATOM     19  C   UNL     1      -9.494   0.089   1.464  0.00  0.00    +0.111 A 
ATOM     20  N   UNL     1     -10.296  -0.743   0.829  0.00  0.00    -0.263 NA
ATOM     21  C   UNL     1      -9.863  -1.527  -0.140  0.00  0.00    +0.111 A 
ATOM     22  C   UNL     1      -8.539  -1.507  -0.530  0.00  0.00    +0.031 A 
ENDBRANCH  15  17
ENDBRANCH   7  12
BRANCH   1  23
ATOM     23  C   UNL     1       3.195   1.523  -0.962  0.00  0.00    +0.222 C 
BRANCH  23  26
ATOM     24  N   UNL     1       5.245   0.217  -0.501  0.00  0.00    -0.281 N 
ATOM     25  H   UNL     1       5.703   0.758  -1.163  0.00  0.00    +0.155 HD
ATOM     26  C   UNL     1       3.960   0.478  -0.190  0.00  0.00    +0.237 C 
ATOM     27  O   UNL     1       3.418  -0.128   0.710  0.00  0.00    -0.274 OA
BRANCH  24  29
ATOM     28  C   UNL     1       7.308  -0.821   0.223  0.00  0.00    +0.142 A 
ATOM     29  C   UNL     1       5.919  -0.836   0.131  0.00  0.00    +0.076 A 
ATOM     30  C   UNL     1       5.204  -1.902   0.659  0.00  0.00    +0.027 A 
ATOM     31  C   UNL     1       5.871  -2.939   1.283  0.00  0.00    +0.002 A 
ATOM     32  C   UNL     1       7.250  -2.921   1.378  0.00  0.00    +0.004 A 
ATOM     33  C   UNL     1       7.969  -1.865   0.850  0.00  0.00    +0.047 A 
BRANCH  28  34
ATOM     34  O   UNL     1       8.014   0.219  -0.296  0.00  0.00    -0.490 OA
BRANCH  34  36
ATOM     35  C   UNL     1      10.249   1.088  -0.603  0.00  0.00    +0.048 C 
ATOM     36  C   UNL     1       9.394  -0.051  -0.041  0.00  0.00    +0.226 C 
ENDBRANCH  34  36
ENDBRANCH  28  34
ENDBRANCH  24  29
ENDBRANCH  23  26
ENDBRANCH   1  23
TORSDOF 7
