REMARK  Name = m109
REMARK  8 active torsions:
REMARK  status: ('A' for Active; 'I' for Inactive)
REMARK    1  A    between atoms: C_1  and  C_2
REMARK    2  A    between atoms: N_5  and  S_6
REMARK    3  A    between atoms: S_6  and  C_9
REMARK    4  A    between atoms: C_11  and  C_12
REMARK    5  A    between atoms: C_14  and  C_15
REMARK    6  A    between atoms: C_16  and  C_17
REMARK    7  A    between atoms: N_26  and  C_27
REMARK    8  A    between atoms: C_28  and  C_29
REMARK                            x       y       z     vdW  Elec       q    Type
REMARK                         _______ _______ _______ _____ _____    ______ ____
ROOT
ATOM      1  C   UNL     1      -2.541   0.888   0.975  0.00  0.00    +0.130 A 
ATOM      2  C   UNL     1      -2.600   2.065   0.311  0.00  0.00    +0.043 A 
ATOM      3  C   UNL     1      -3.809   2.959   0.211  0.00  0.00    +0.065 C 
ATOM      4  N   UNL     1      -1.382   2.311  -0.243  0.00  0.00    -0.344 N 
ATOM      5  C   UNL     1      -1.028   3.488  -1.041  0.00  0.00    +0.149 C 
ATOM      6  C   UNL     1      -0.541   1.269   0.066  0.00  0.00    +0.076 A 
ATOM      7  C   UNL     1      -1.246   0.375   0.823  0.00  0.00    +0.059 A 
ENDROOT
BRANCH   6   8
ATOM      8  C   UNL     1       0.864   1.139  -0.343  0.00  0.00    +0.126 A 
ATOM      9  S   UNL     1       2.029  -0.169   0.015  0.00  0.00    -0.061 S 
ATOM     10  C   UNL     1       3.418   0.525  -0.871  0.00  0.00    +0.097 A 
ATOM     11  C   UNL     1       2.853   1.700  -1.352  0.00  0.00    +0.058 A 
ATOM     12  C   UNL     1       3.671   2.656  -2.182  0.00  0.00    +0.067 C 
ATOM     13  N   UNL     1       1.608   1.966  -1.076  0.00  0.00    -0.242 NA
BRANCH  10  14
ATOM     14  C   UNL     1       4.776   0.004  -1.039  0.00  0.00    +0.255 C 
ATOM     15  N   UNL     1       5.268  -0.889  -0.158  0.00  0.00    -0.293 N 
ATOM     16  C   UNL     1       4.526  -1.248   1.063  0.00  0.00    +0.136 C 
ATOM     17  C   UNL     1       5.493  -1.202   2.246  0.00  0.00    +0.179 C 
ATOM     18  O   UNL     1       6.609  -2.053   1.988  0.00  0.00    -0.377 OA
ATOM     19  C   UNL     1       7.368  -1.465   0.931  0.00  0.00    +0.179 C 
ATOM     20  C   UNL     1       6.571  -1.540  -0.376  0.00  0.00    +0.136 C 
ATOM     21  O   UNL     1       5.461   0.378  -1.974  0.00  0.00    -0.269 OA
ENDBRANCH  10  14
ENDBRANCH   6   8
BRANCH   1  22
ATOM     22  S   UNL     1      -3.861   0.131   1.865  0.00  0.00    +0.075 S 
ATOM     23  O   UNL     1      -3.357  -1.121   2.310  0.00  0.00    -0.150 OA
ATOM     24  O   UNL     1      -4.395   1.147   2.701  0.00  0.00    -0.150 OA
BRANCH  22  30
ATOM     25  C   UNL     1      -5.511  -3.252  -3.159  0.00  0.00    +0.089 C 
ATOM     26  C   UNL     1      -5.011  -2.444  -1.989  0.00  0.00    +0.136 A 
ATOM     27  O   UNL     1      -3.754  -2.401  -1.524  0.00  0.00    -0.358 OA
ATOM     28  N   UNL     1      -3.652  -1.660  -0.574  0.00  0.00    -0.062 NA
ATOM     29  C   UNL     1      -4.802  -1.119  -0.264  0.00  0.00    +0.181 A 
ATOM     30  N   UNL     1      -5.053  -0.227   0.773  0.00  0.00    -0.197 N 
ATOM     31  H   UNL     1      -5.927   0.187   0.856  0.00  0.00    +0.175 HD
ATOM     32  C   UNL     1      -5.744  -1.627  -1.200  0.00  0.00    +0.092 A 
ENDBRANCH  22  30
ENDBRANCH   1  22
TORSDOF 4
