REMARK  Name = m110
REMARK  5 active torsions:
REMARK  status: ('A' for Active; 'I' for Inactive)
REMARK    1  A    between atoms: C_1  and  C_2
REMARK    2  A    between atoms: C_2  and  O_3
REMARK    3  A    between atoms: O_3  and  C_4
REMARK    4  A    between atoms: C_8  and  C_9
REMARK    5  A    between atoms: C_25  and  C_26
REMARK                            x       y       z     vdW  Elec       q    Type
REMARK                         _______ _______ _______ _____ _____    ______ ____
ROOT
ATOM      1  C   UNL     1       1.869   0.107  -1.799  0.00  0.00    +0.063 C 
ATOM      2  C   UNL     1       0.678   0.917  -1.358  0.00  0.00    +0.020 A 
ATOM      3  C   UNL     1       0.509   2.293  -1.307  0.00  0.00    +0.141 A 
ATOM      4  N   UNL     1      -0.699   2.543  -0.858  0.00  0.00    -0.171 NA
ATOM      5  N   UNL     1      -1.344   1.321  -0.608  0.00  0.00    -0.198 N 
ATOM      6  C   UNL     1      -2.646   1.159  -0.123  0.00  0.00    +0.176 A 
ATOM      7  N   UNL     1      -3.123  -0.049   0.058  0.00  0.00    -0.144 NA
ATOM      8  N   UNL     1      -4.418  -0.234   0.546  0.00  0.00    -0.195 N 
ATOM      9  C   UNL     1      -5.208   0.854   0.831  0.00  0.00    +0.178 A 
ATOM     10  N   UNL     1      -6.366   0.383   1.265  0.00  0.00    -0.128 NA
ATOM     11  N   UNL     1      -6.329  -0.904   1.262  0.00  0.00    -0.132 NA
ATOM     12  C   UNL     1      -4.696   2.149   0.630  0.00  0.00    +0.054 A 
ATOM     13  C   UNL     1      -5.164  -1.322   0.833  0.00  0.00    +0.152 A 
ATOM     14  C   UNL     1      -4.735  -2.759   0.685  0.00  0.00    +0.090 C 
ATOM     15  C   UNL     1      -3.429   2.294   0.158  0.00  0.00    +0.054 A 
ATOM     16  C   UNL     1      -0.481   0.332  -0.920  0.00  0.00    +0.134 A 
ATOM     17  N   UNL     1      -0.624  -1.053  -0.852  0.00  0.00    -0.270 N 
ATOM     18  H   UNL     1      -1.363  -1.456  -0.368  0.00  0.00    +0.156 HD
ATOM     19  C   UNL     1       0.295  -1.818  -1.479  0.00  0.00    +0.219 C 
ATOM     20  O   UNL     1       0.255  -3.021  -1.331  0.00  0.00    -0.275 OA
ATOM     21  C   UNL     1       1.366  -1.230  -2.352  0.00  0.00    +0.109 C 
ENDROOT
BRANCH   1  24
ATOM     22  C   UNL     1       4.925   0.064   0.424  0.00  0.00    +0.121 A 
ATOM     23  C   UNL     1       4.088   0.298  -0.657  0.00  0.00    +0.050 A 
ATOM     24  C   UNL     1       2.778  -0.141  -0.622  0.00  0.00    -0.036 A 
ATOM     25  C   UNL     1       2.299  -0.802   0.493  0.00  0.00    +0.004 A 
ATOM     26  C   UNL     1       3.130  -1.031   1.574  0.00  0.00    +0.004 A 
ATOM     27  C   UNL     1       4.442  -0.600   1.542  0.00  0.00    +0.045 A 
BRANCH  22  28
ATOM     28  O   UNL     1       6.215   0.489   0.389  0.00  0.00    -0.492 OA
BRANCH  28  30
ATOM     29  C   UNL     1       8.270   0.562   1.660  0.00  0.00    +0.048 C 
ATOM     30  C   UNL     1       6.809   0.110   1.633  0.00  0.00    +0.225 C 
ENDBRANCH  28  30
ENDBRANCH  22  28
ENDBRANCH   1  24
TORSDOF 3
