REMARK  Name = m111
REMARK  13 active torsions:
REMARK  status: ('A' for Active; 'I' for Inactive)
REMARK    1  A    between atoms: C_1  and  C_2
REMARK    2  A    between atoms: C_2  and  O_3
REMARK    3  A    between atoms: O_3  and  C_4
REMARK    4  A    between atoms: C_4  and  C_6
REMARK    5  A    between atoms: C_8  and  C_9
REMARK    6  A    between atoms: N_15  and  C_16
REMARK    7  A    between atoms: C_16  and  C_17
REMARK    8  A    between atoms: C_19  and  C_20
REMARK    9  A    between atoms: C_23  and  O_24
REMARK   10  A    between atoms: O_24  and  C_25
REMARK   11  A    between atoms: C_25  and  C_26
REMARK   12  A    between atoms: C_30  and  C_31
REMARK   13  A    between atoms: N_34  and  C_35
REMARK                            x       y       z     vdW  Elec       q    Type
REMARK                         _______ _______ _______ _____ _____    ______ ____
ROOT
ATOM      1  C   UNL     1       4.150  -0.357  -0.724  0.00  0.00    +0.077 A 
ATOM      2  C   UNL     1       3.047  -0.776   0.037  0.00  0.00    +0.096 A 
ATOM      3  C   UNL     1       2.210   0.177   0.786  0.00  0.00    +0.267 A 
ATOM      4  N   UNL     1       1.160  -0.309   1.485  0.00  0.00    -0.254 N 
ATOM      5  C   UNL     1       0.885  -1.622   1.498  0.00  0.00    +0.334 A 
ATOM      6  N   UNL     1       1.622  -2.530   0.836  0.00  0.00    -0.281 N 
ATOM      7  C   UNL     1       1.255  -3.947   0.901  0.00  0.00    +0.155 C 
ATOM      8  O   UNL     1      -0.071  -2.009   2.142  0.00  0.00    -0.246 OA
ATOM      9  O   UNL     1       2.456   1.368   0.775  0.00  0.00    -0.267 OA
ATOM     10  C   UNL     1       2.717  -2.141   0.084  0.00  0.00    +0.151 A 
ATOM     11  N   UNL     1       3.448  -3.024  -0.577  0.00  0.00    -0.234 NA
ATOM     12  C   UNL     1       4.492  -2.663  -1.295  0.00  0.00    +0.041 A 
ATOM     13  C   UNL     1       5.283  -3.720  -2.023  0.00  0.00    +0.065 C 
ATOM     14  C   UNL     1       4.882  -1.338  -1.398  0.00  0.00    +0.039 A 
ENDROOT
BRANCH   1  15
ATOM     15  C   UNL     1       4.529   1.073  -0.803  0.00  0.00    +0.340 C 
ATOM     16  O   UNL     1       3.701   1.903  -1.117  0.00  0.00    -0.245 OA
BRANCH  15  17
ATOM     17  O   UNL     1       5.792   1.451  -0.527  0.00  0.00    -0.461 OA
BRANCH  17  19
ATOM     18  C   UNL     1       7.642   3.009  -0.247  0.00  0.00    +0.048 C 
ATOM     19  C   UNL     1       6.163   2.853  -0.605  0.00  0.00    +0.229 C 
ENDBRANCH  17  19
ENDBRANCH  15  17
ENDBRANCH   1  15
BRANCH   4  20
ATOM     20  C   UNL     1       0.308   0.614   2.240  0.00  0.00    +0.188 C 
BRANCH  20  21
ATOM     21  C   UNL     1      -0.817   1.092   1.360  0.00  0.00    +0.103 A 
ATOM     22  C   UNL     1      -0.798   2.183   0.573  0.00  0.00    +0.127 A 
ATOM     23  C   UNL     1       0.351   3.143   0.404  0.00  0.00    +0.088 C 
ATOM     24  O   UNL     1      -1.994   2.251  -0.045  0.00  0.00    -0.440 OA
ATOM     25  C   UNL     1      -2.733   1.210   0.377  0.00  0.00    +0.228 A 
ATOM     26  N   UNL     1      -2.019   0.510   1.228  0.00  0.00    -0.212 NA
BRANCH  25  27
ATOM     27  C   UNL     1      -4.116   0.906  -0.045  0.00  0.00    +0.037 A 
ATOM     28  C   UNL     1      -4.773  -0.215   0.467  0.00  0.00    +0.017 A 
ATOM     29  C   UNL     1      -6.065  -0.493   0.074  0.00  0.00    +0.046 A 
ATOM     30  C   UNL     1      -6.709   0.334  -0.837  0.00  0.00    +0.121 A 
ATOM     31  C   UNL     1      -6.056   1.446  -1.353  0.00  0.00    +0.046 A 
ATOM     32  C   UNL     1      -4.767   1.734  -0.961  0.00  0.00    +0.017 A 
BRANCH  30  33
ATOM     33  O   UNL     1      -7.980   0.054  -1.226  0.00  0.00    -0.492 OA
BRANCH  33  34
ATOM     34  C   UNL     1      -8.371  -1.133  -0.533  0.00  0.00    +0.225 C 
ATOM     35  C   UNL     1      -9.801  -1.506  -0.928  0.00  0.00    +0.048 C 
ENDBRANCH  33  34
ENDBRANCH  30  33
ENDBRANCH  25  27
ENDBRANCH  20  21
ENDBRANCH   4  20
TORSDOF 8
