REMARK  Name = m112
REMARK  7 active torsions:
REMARK  status: ('A' for Active; 'I' for Inactive)
REMARK    1  A    between atoms: C_1  and  N_2
REMARK    2  A    between atoms: C_3  and  C_5
REMARK    3  A    between atoms: C_13  and  C_14
REMARK    4  A    between atoms: N_16  and  S_17
REMARK    5  A    between atoms: S_17  and  C_20
REMARK    6  A    between atoms: C_21  and  C_22
REMARK    7  A    between atoms: C_25  and  C_26
REMARK                            x       y       z     vdW  Elec       q    Type
REMARK                         _______ _______ _______ _____ _____    ______ ____
ROOT
ATOM      1  C   UNL     1       1.011  -0.194  -1.088  0.00  0.00    +0.166 C 
ATOM      2  O   UNL     1       0.878   0.863  -2.038  0.00  0.00    -0.369 OA
ATOM      3  C   UNL     1      -0.227   0.550  -2.885  0.00  0.00    +0.178 C 
ATOM      4  C   UNL     1      -1.530   0.644  -2.084  0.00  0.00    +0.137 C 
ATOM      5  N   UNL     1      -1.416  -0.245  -0.915  0.00  0.00    -0.171 NA
ATOM      6  C   UNL     1      -0.178  -0.168  -0.122  0.00  0.00    +0.146 C 
ENDROOT
BRANCH   1   8
ATOM      7  C   UNL     1       2.634   1.212   0.161  0.00  0.00    +0.082 A 
ATOM      8  C   UNL     1       2.292  -0.014  -0.314  0.00  0.00    +0.011 A 
ATOM      9  C   UNL     1       3.137  -1.114  -0.087  0.00  0.00    +0.014 A 
ATOM     10  C   UNL     1       4.312  -0.838   0.654  0.00  0.00    +0.109 A 
ATOM     11  N   UNL     1       5.196  -1.764   0.950  0.00  0.00    -0.248 NA
ATOM     12  C   UNL     1       5.032  -3.015   0.565  0.00  0.00    +0.112 A 
ATOM     13  C   UNL     1       3.912  -3.384  -0.167  0.00  0.00    +0.020 A 
ATOM     14  C   UNL     1       2.965  -2.461  -0.500  0.00  0.00    +0.012 A 
ATOM     15  S   UNL     1       4.186   0.903   0.985  0.00  0.00    -0.064 S 
BRANCH   7  19
ATOM     16  C   UNL     1       1.673   4.870   0.455  0.00  0.00    +0.128 C 
ATOM     17  N   UNL     1       2.403   3.606   0.582  0.00  0.00    -0.314 N 
ATOM     18  H   UNL     1       3.245   3.578   1.061  0.00  0.00    +0.149 HD
ATOM     19  C   UNL     1       1.902   2.481   0.033  0.00  0.00    +0.251 C 
ATOM     20  O   UNL     1       0.845   2.515  -0.568  0.00  0.00    -0.270 OA
ENDBRANCH   7  19
ENDBRANCH   1   8
BRANCH   5  21
ATOM     21  S   UNL     1      -2.634  -1.291  -0.508  0.00  0.00    +0.066 S 
ATOM     22  O   UNL     1      -2.023  -2.313   0.268  0.00  0.00    -0.153 OA
ATOM     23  O   UNL     1      -3.379  -1.498  -1.701  0.00  0.00    -0.153 OA
BRANCH  21  24
ATOM     24  C   UNL     1      -3.716  -0.438   0.590  0.00  0.00    +0.170 A 
ATOM     25  C   UNL     1      -3.659  -0.384   1.942  0.00  0.00    +0.161 A 
ATOM     26  C   UNL     1      -2.636  -1.046   2.829  0.00  0.00    +0.091 C 
ATOM     27  O   UNL     1      -4.686   0.383   2.335  0.00  0.00    -0.358 OA
ATOM     28  N   UNL     1      -5.335   0.773   1.392  0.00  0.00    -0.081 NA
ATOM     29  C   UNL     1      -4.849   0.342   0.264  0.00  0.00    +0.107 A 
ATOM     30  C   UNL     1      -5.388   0.620  -1.116  0.00  0.00    +0.071 C 
ENDBRANCH  21  24
ENDBRANCH   5  21
TORSDOF 4
