REMARK  Name = m113
REMARK  4 active torsions:
REMARK  status: ('A' for Active; 'I' for Inactive)
REMARK    1  A    between atoms: C_1  and  C_2
REMARK    2  A    between atoms: C_8  and  C_10
REMARK    3  A    between atoms: C_13  and  C_14
REMARK    4  A    between atoms: C_19  and  C_20
REMARK                            x       y       z     vdW  Elec       q    Type
REMARK                         _______ _______ _______ _____ _____    ______ ____
ROOT
ATOM      1  C   UNL     1       0.869   0.180  -0.071  0.00  0.00    +0.164 A 
ATOM      2  C   UNL     1      -0.156   1.133  -0.037  0.00  0.00    +0.094 A 
ATOM      3 BR   UNL     1       0.066   3.011  -0.020  0.00  0.00    -0.044 Br
ATOM      4  C   UNL     1      -1.363   0.449  -0.021  0.00  0.00    +0.172 A 
ATOM      5  N   UNL     1      -1.070  -0.892  -0.036  0.00  0.00    -0.208 N 
ATOM      6  C   UNL     1      -2.082  -1.815  -0.020  0.00  0.00    +0.150 A 
ATOM      7  C   UNL     1      -3.363  -1.389   0.011  0.00  0.00    +0.064 A 
ATOM      8  C   UNL     1      -3.633   0.002   0.026  0.00  0.00    +0.110 A 
ATOM      9  N   UNL     1      -2.635   0.870   0.010  0.00  0.00    -0.224 NA
ATOM     10  N   UNL     1       0.324  -1.027  -0.068  0.00  0.00    -0.159 NA
ENDROOT
BRANCH   1  17
ATOM     11  C   UNL     1       7.846  -2.147   0.221  0.00  0.00    +0.044 C 
ATOM     12  C   UNL     1       6.830  -1.037   0.125  0.00  0.00    -0.046 A 
ATOM     13  C   UNL     1       5.479  -1.320   0.038  0.00  0.00    +0.047 A 
ATOM     14  C   UNL     1       4.572  -0.270  -0.044  0.00  0.00    +0.125 A 
ATOM     15  N   UNL     1       3.208  -0.540  -0.127  0.00  0.00    -0.265 N 
ATOM     16  H   UNL     1       2.899  -1.457  -0.203  0.00  0.00    +0.157 HD
ATOM     17  C   UNL     1       2.317   0.471  -0.100  0.00  0.00    +0.271 C 
ATOM     18  O   UNL     1       2.705   1.623  -0.101  0.00  0.00    -0.268 OA
ATOM     19  N   UNL     1       4.993   0.985  -0.051  0.00  0.00    -0.240 NA
ATOM     20  C   UNL     1       6.275   1.285   0.025  0.00  0.00    +0.113 A 
ATOM     21  C   UNL     1       7.231   0.292   0.115  0.00  0.00    +0.023 A 
ENDBRANCH   1  17
BRANCH   8  22
ATOM     22  C   UNL     1      -5.026   0.481   0.061  0.00  0.00    +0.153 A 
ATOM     23  O   UNL     1      -6.129  -0.292   0.074  0.00  0.00    -0.461 OA
ATOM     24  C   UNL     1      -7.220   0.488   0.109  0.00  0.00    +0.196 A 
ATOM     25  C   UNL     1      -6.829   1.779   0.109  0.00  0.00    +0.042 A 
ATOM     26  C   UNL     1      -5.423   1.785   0.078  0.00  0.00    +0.051 A 
ENDBRANCH   8  22
BRANCH   6  27
ATOM     27  C   UNL     1      -1.770  -3.289  -0.037  0.00  0.00    +0.434 C 
ATOM     28  F   UNL     1      -1.003  -3.615   1.087  0.00  0.00    -0.164 F 
ATOM     29  F   UNL     1      -1.053  -3.600  -1.197  0.00  0.00    -0.164 F 
ATOM     30  F   UNL     1      -2.963  -4.019  -0.016  0.00  0.00    -0.164 F 
ENDBRANCH   6  27
TORSDOF 3
