REMARK  Name = m115
REMARK  9 active torsions:
REMARK  status: ('A' for Active; 'I' for Inactive)
REMARK    1  A    between atoms: C_1  and  C_2
REMARK    2  A    between atoms: C_2  and  S_3
REMARK    3  A    between atoms: S_3  and  C_4
REMARK    4  A    between atoms: C_7  and  C_8
REMARK    5  A    between atoms: N_10  and  C_11
REMARK    6  A    between atoms: N_15  and  S_16
REMARK    7  A    between atoms: S_16  and  C_19
REMARK    8  A    between atoms: N_28  and  C_29
REMARK    9  A    between atoms: C_29  and  C_30
REMARK                            x       y       z     vdW  Elec       q    Type
REMARK                         _______ _______ _______ _____ _____    ______ ____
ROOT
ATOM      1  C   UNL     1       1.308  -1.321  -0.711  0.00  0.00    +0.134 A 
ATOM      2  C   UNL     1       0.099  -1.645  -0.075  0.00  0.00    +0.020 A 
ATOM      3  C   UNL     1      -0.323  -1.323   1.338  0.00  0.00    +0.148 C 
ATOM      4  N   UNL     1      -1.763  -1.619   1.442  0.00  0.00    -0.172 NA
ATOM      5  C   UNL     1      -2.263  -2.871   0.853  0.00  0.00    +0.116 C 
ATOM      6  C   UNL     1      -2.061  -2.832  -0.665  0.00  0.00    +0.072 C 
ATOM      7  C   UNL     1      -0.674  -2.319  -0.961  0.00  0.00    +0.045 A 
ATOM      8  N   UNL     1       0.018  -2.435  -2.110  0.00  0.00    -0.270 N 
ATOM      9  C   UNL     1      -0.445  -3.105  -3.328  0.00  0.00    +0.172 C 
ATOM     10  N   UNL     1       1.258  -1.803  -1.939  0.00  0.00    -0.168 NA
ENDROOT
BRANCH   1  13
ATOM     11  C   UNL     1       4.355   0.418   0.210  0.00  0.00    +0.192 A 
ATOM     12  N   UNL     1       3.626  -0.259  -0.726  0.00  0.00    -0.301 N 
ATOM     13  C   UNL     1       2.438  -0.580  -0.110  0.00  0.00    +0.185 A 
ATOM     14  N   UNL     1       2.494  -0.098   1.110  0.00  0.00    -0.127 NA
ATOM     15  N   UNL     1       3.622   0.489   1.298  0.00  0.00    -0.122 NA
BRANCH  12  16
ATOM     16  C   UNL     1       4.027  -0.584  -2.097  0.00  0.00    +0.122 C 
ATOM     17  C   UNL     1       3.593   0.543  -3.036  0.00  0.00    +0.027 C 
ENDBRANCH  12  16
BRANCH  11  18
ATOM     18  S   UNL     1       5.974   1.080  -0.005  0.00  0.00    -0.086 S 
BRANCH  18  20
ATOM     19  C   UNL     1       7.617   2.464   1.683  0.00  0.00    +0.016 C 
ATOM     20  C   UNL     1       6.234   1.810   1.631  0.00  0.00    +0.074 C 
ENDBRANCH  18  20
ENDBRANCH  11  18
ENDBRANCH   1  13
BRANCH   4  21
ATOM     21  S   UNL     1      -2.793  -0.569   2.202  0.00  0.00    +0.061 S 
ATOM     22  O   UNL     1      -1.982   0.202   3.078  0.00  0.00    -0.153 OA
ATOM     23  O   UNL     1      -3.917  -1.346   2.593  0.00  0.00    -0.153 OA
BRANCH  21  24
ATOM     24  C   UNL     1      -3.389   0.558   0.986  0.00  0.00    +0.106 A 
ATOM     25  C   UNL     1      -2.708   1.736   0.743  0.00  0.00    +0.030 A 
ATOM     26  C   UNL     1      -3.173   2.618  -0.215  0.00  0.00    +0.022 A 
ATOM     27  C   UNL     1      -4.325   2.326  -0.923  0.00  0.00    +0.041 A 
ATOM     28 CL   UNL     1      -4.913   3.436  -2.121  0.00  0.00    -0.084 Cl
ATOM     29  C   UNL     1      -5.009   1.149  -0.675  0.00  0.00    +0.022 A 
ATOM     30  C   UNL     1      -4.541   0.266   0.279  0.00  0.00    +0.030 A 
ENDBRANCH  21  24
ENDBRANCH   4  21
TORSDOF 6
