REMARK  Name = m116
REMARK  5 active torsions:
REMARK  status: ('A' for Active; 'I' for Inactive)
REMARK    1  A    between atoms: C_1  and  C_2
REMARK    2  A    between atoms: C_18  and  C_19
REMARK    3  A    between atoms: C_22  and  O_23
REMARK    4  A    between atoms: O_23  and  C_24
REMARK    5  A    between atoms: C_24  and  C_25
REMARK                            x       y       z     vdW  Elec       q    Type
REMARK                         _______ _______ _______ _____ _____    ______ ____
ROOT
ATOM      1  C   UNL     1      -4.720   2.751  -2.389  0.00  0.00    +0.090 C 
ATOM      2  C   UNL     1      -5.297   2.637  -1.002  0.00  0.00    +0.152 A 
ATOM      3  N   UNL     1      -4.962   1.717  -0.073  0.00  0.00    -0.195 N 
ATOM      4  C   UNL     1      -5.732   1.994   1.031  0.00  0.00    +0.178 A 
ATOM      5  C   UNL     1      -5.601   1.195   2.182  0.00  0.00    +0.054 A 
ATOM      6  C   UNL     1      -4.711   0.167   2.176  0.00  0.00    +0.054 A 
ATOM      7  C   UNL     1      -3.933  -0.086   1.031  0.00  0.00    +0.176 A 
ATOM      8  N   UNL     1      -3.020  -1.146   1.038  0.00  0.00    -0.198 N 
ATOM      9  C   UNL     1      -2.215  -1.510   0.018  0.00  0.00    +0.134 A 
ATOM     10  N   UNL     1      -2.059  -0.965  -1.256  0.00  0.00    -0.270 N 
ATOM     11  H   UNL     1      -2.433  -0.098  -1.477  0.00  0.00    +0.156 HD
ATOM     12  C   UNL     1      -1.373  -1.680  -2.172  0.00  0.00    +0.219 C 
ATOM     13  C   UNL     1      -0.905  -3.083  -1.909  0.00  0.00    +0.109 C 
ATOM     14  C   UNL     1      -0.470  -3.266  -0.455  0.00  0.00    +0.063 C 
ATOM     15  O   UNL     1      -1.124  -1.172  -3.246  0.00  0.00    -0.275 OA
ATOM     16  C   UNL     1      -1.481  -2.589   0.435  0.00  0.00    +0.020 A 
ATOM     17  C   UNL     1      -1.858  -2.886   1.737  0.00  0.00    +0.141 A 
ATOM     18  N   UNL     1      -2.780  -2.026   2.105  0.00  0.00    -0.171 NA
ATOM     19  N   UNL     1      -6.484   3.038   0.721  0.00  0.00    -0.128 NA
ATOM     20  N   UNL     1      -4.053   0.657  -0.043  0.00  0.00    -0.144 NA
ATOM     21  N   UNL     1      -6.219   3.410  -0.483  0.00  0.00    -0.132 NA
ENDROOT
BRANCH  14  22
ATOM     22  C   UNL     1       0.882  -2.635  -0.246  0.00  0.00    -0.039 A 
ATOM     23  C   UNL     1       1.057  -1.283  -0.481  0.00  0.00    +0.008 A 
ATOM     24  C   UNL     1       2.294  -0.701  -0.285  0.00  0.00    +0.046 A 
ATOM     25  C   UNL     1       3.364  -1.476   0.138  0.00  0.00    +0.121 A 
ATOM     26  C   UNL     1       3.188  -2.832   0.368  0.00  0.00    +0.046 A 
ATOM     27  C   UNL     1       1.947  -3.409   0.176  0.00  0.00    +0.008 A 
BRANCH  25  28
ATOM     28  O   UNL     1       4.584  -0.906   0.327  0.00  0.00    -0.487 OA
BRANCH  28  29
ATOM     29  C   UNL     1       4.445   0.481   0.012  0.00  0.00    +0.267 C 
BRANCH  29  30
ATOM     30  C   UNL     1       5.770   1.174   0.202  0.00  0.00    +0.025 A 
ATOM     31  C   UNL     1       5.884   2.531  -0.049  0.00  0.00    +0.130 A 
ATOM     32  F   UNL     1       4.807   3.235  -0.460  0.00  0.00    -0.205 F 
ATOM     33  C   UNL     1       7.101   3.167   0.131  0.00  0.00    +0.039 A 
ATOM     34  C   UNL     1       8.202   2.446   0.550  0.00  0.00    +0.003 A 
ATOM     35  C   UNL     1       8.088   1.089   0.795  0.00  0.00    +0.001 A 
ATOM     36  C   UNL     1       6.873   0.454   0.622  0.00  0.00    +0.010 A 
ENDBRANCH  29  30
ENDBRANCH  28  29
ENDBRANCH  25  28
ENDBRANCH  14  22
TORSDOF 4
