REMARK  Name = m117
REMARK  8 active torsions:
REMARK  status: ('A' for Active; 'I' for Inactive)
REMARK    1  A    between atoms: C_1  and  C_2
REMARK    2  A    between atoms: N_6  and  S_7
REMARK    3  A    between atoms: S_7  and  C_10
REMARK    4  A    between atoms: C_12  and  C_13
REMARK    5  A    between atoms: C_15  and  C_16
REMARK    6  A    between atoms: C_17  and  C_18
REMARK    7  A    between atoms: N_26  and  C_27
REMARK    8  A    between atoms: C_28  and  C_29
REMARK                            x       y       z     vdW  Elec       q    Type
REMARK                         _______ _______ _______ _____ _____    ______ ____
ROOT
ATOM      1  C   UNL     1      -2.299   1.232   0.784  0.00  0.00    +0.130 A 
ATOM      2  C   UNL     1      -2.313   2.251  -0.106  0.00  0.00    +0.043 A 
ATOM      3  C   UNL     1      -3.517   3.077  -0.478  0.00  0.00    +0.065 C 
ATOM      4  N   UNL     1      -1.056   2.413  -0.600  0.00  0.00    -0.344 N 
ATOM      5  C   UNL     1      -0.648   3.415  -1.587  0.00  0.00    +0.149 C 
ATOM      6  C   UNL     1      -0.234   1.474  -0.022  0.00  0.00    +0.076 A 
ATOM      7  C   UNL     1      -0.991   0.732   0.841  0.00  0.00    +0.059 A 
ENDROOT
BRANCH   6   8
ATOM      8  C   UNL     1       1.201   1.300  -0.286  0.00  0.00    +0.126 A 
ATOM      9  S   UNL     1       2.344   0.120   0.419  0.00  0.00    -0.061 S 
ATOM     10  C   UNL     1       3.796   0.659  -0.477  0.00  0.00    +0.097 A 
ATOM     11  C   UNL     1       3.261   1.700  -1.226  0.00  0.00    +0.058 A 
ATOM     12  C   UNL     1       4.136   2.490  -2.164  0.00  0.00    +0.067 C 
ATOM     13  N   UNL     1       1.995   1.984  -1.108  0.00  0.00    -0.242 NA
BRANCH  10  14
ATOM     14  C   UNL     1       5.167   0.149  -0.428  0.00  0.00    +0.255 C 
ATOM     15  N   UNL     1       5.474  -0.885   0.380  0.00  0.00    -0.297 N 
ATOM     16  C   UNL     1       4.532  -1.588   1.270  0.00  0.00    +0.108 C 
ATOM     17  C   UNL     1       5.157  -2.994   1.474  0.00  0.00    +0.020 C 
ATOM     18  C   UNL     1       6.669  -2.653   1.535  0.00  0.00    +0.020 C 
ATOM     19  C   UNL     1       6.804  -1.494   0.526  0.00  0.00    +0.108 C 
ATOM     20  O   UNL     1       6.031   0.658  -1.119  0.00  0.00    -0.269 OA
ENDBRANCH  10  14
ENDBRANCH   6   8
BRANCH   1  21
ATOM     21  S   UNL     1      -3.680   0.634   1.700  0.00  0.00    +0.075 S 
ATOM     22  O   UNL     1      -3.201  -0.484   2.435  0.00  0.00    -0.150 OA
ATOM     23  O   UNL     1      -4.297   1.784   2.262  0.00  0.00    -0.150 OA
BRANCH  21  29
ATOM     24  C   UNL     1      -3.320  -4.428  -2.492  0.00  0.00    +0.045 C 
ATOM     25  C   UNL     1      -3.744  -3.236  -1.674  0.00  0.00    -0.032 A 
ATOM     26  C   UNL     1      -2.847  -2.618  -0.827  0.00  0.00    +0.116 A 
ATOM     27  N   UNL     1      -3.205  -1.569  -0.109  0.00  0.00    -0.239 NA
ATOM     28  C   UNL     1      -4.434  -1.078  -0.164  0.00  0.00    +0.138 A 
ATOM     29  N   UNL     1      -4.770   0.025   0.613  0.00  0.00    -0.199 N 
ATOM     30  H   UNL     1      -5.643   0.437   0.518  0.00  0.00    +0.175 HD
ATOM     31  C   UNL     1      -5.391  -1.655  -0.993  0.00  0.00    +0.045 A 
ATOM     32  C   UNL     1      -5.043  -2.752  -1.761  0.00  0.00    +0.008 A 
ENDBRANCH  21  29
ENDBRANCH   1  21
TORSDOF 4
