REMARK  Name = m118
REMARK  7 active torsions:
REMARK  status: ('A' for Active; 'I' for Inactive)
REMARK    1  A    between atoms: C_1  and  O_2
REMARK    2  A    between atoms: O_2  and  C_3
REMARK    3  A    between atoms: C_3  and  C_5
REMARK    4  A    between atoms: C_7  and  C_8
REMARK    5  A    between atoms: N_16  and  C_17
REMARK    6  A    between atoms: C_17  and  C_18
REMARK    7  A    between atoms: N_28  and  C_29
REMARK                            x       y       z     vdW  Elec       q    Type
REMARK                         _______ _______ _______ _____ _____    ______ ____
ROOT
ATOM      1  C   UNL     1       2.156   1.931   0.041  0.00  0.00    +0.077 A 
ATOM      2  C   UNL     1       1.232   0.893   0.245  0.00  0.00    +0.096 A 
ATOM      3  C   UNL     1      -0.193   1.158   0.506  0.00  0.00    +0.267 A 
ATOM      4  N   UNL     1      -1.016   0.100   0.681  0.00  0.00    -0.251 N 
ATOM      5  C   UNL     1      -0.552  -1.157   0.619  0.00  0.00    +0.338 A 
ATOM      6  N   UNL     1       0.739  -1.449   0.389  0.00  0.00    -0.246 N 
ATOM      7  O   UNL     1      -1.334  -2.074   0.783  0.00  0.00    -0.246 OA
ATOM      8  O   UNL     1      -0.617   2.296   0.563  0.00  0.00    -0.267 OA
ATOM      9  C   UNL     1       1.669  -0.441   0.190  0.00  0.00    +0.155 A 
ATOM     10  N   UNL     1       2.942  -0.715  -0.043  0.00  0.00    -0.233 NA
ATOM     11  C   UNL     1       3.833   0.237  -0.234  0.00  0.00    +0.048 A 
ATOM     12  C   UNL     1       3.485   1.577  -0.201  0.00  0.00    +0.039 A 
ENDROOT
BRANCH   6  13
ATOM     13  C   UNL     1       1.148  -2.788   0.339  0.00  0.00    +0.053 A 
ATOM     14  C   UNL     1       2.357  -3.168   0.906  0.00  0.00    +0.026 A 
ATOM     15  C   UNL     1       2.754  -4.490   0.859  0.00  0.00    +0.002 A 
ATOM     16  C   UNL     1       1.955  -5.432   0.238  0.00  0.00    +0.000 A 
ATOM     17  C   UNL     1       0.754  -5.056  -0.333  0.00  0.00    +0.002 A 
ATOM     18  C   UNL     1       0.348  -3.736  -0.284  0.00  0.00    +0.026 A 
ENDBRANCH   6  13
BRANCH  11  19
ATOM     19  C   UNL     1       5.268  -0.143  -0.494  0.00  0.00    +0.038 C 
ATOM     20  C   UNL     1       6.187   0.930  -1.082  0.00  0.00    +0.010 C 
ATOM     21  C   UNL     1       5.720  -0.238  -1.953  0.00  0.00    +0.010 C 
ENDBRANCH  11  19
BRANCH   1  22
ATOM     22  C   UNL     1       1.736   3.351   0.085  0.00  0.00    +0.340 C 
ATOM     23  O   UNL     1       0.804   3.730  -0.594  0.00  0.00    -0.245 OA
BRANCH  22  25
ATOM     24  C   UNL     1       1.976   5.613   0.924  0.00  0.00    +0.280 C 
ATOM     25  O   UNL     1       2.387   4.221   0.880  0.00  0.00    -0.464 OA
ENDBRANCH  22  25
ENDBRANCH   1  22
BRANCH   4  26
ATOM     26  C   UNL     1      -2.439   0.331   0.942  0.00  0.00    +0.225 C 
BRANCH  26  27
ATOM     27  C   UNL     1      -3.188   0.382  -0.365  0.00  0.00    +0.236 C 
ATOM     28  N   UNL     1      -4.520   0.586  -0.371  0.00  0.00    -0.300 N 
ATOM     29  C   UNL     1      -5.258   0.754   0.889  0.00  0.00    +0.108 C 
ATOM     30  C   UNL     1      -6.413  -0.244   0.926  0.00  0.00    +0.019 C 
ATOM     31  C   UNL     1      -7.270  -0.076  -0.331  0.00  0.00    +0.003 C 
ATOM     32  C   UNL     1      -6.420  -0.364  -1.571  0.00  0.00    +0.019 C 
ATOM     33  C   UNL     1      -5.264   0.639  -1.637  0.00  0.00    +0.108 C 
ATOM     34  O   UNL     1      -2.591   0.240  -1.411  0.00  0.00    -0.274 OA
ENDBRANCH  26  27
ENDBRANCH   4  26
TORSDOF 6
