REMARK  Name = m119
REMARK  9 active torsions:
REMARK  status: ('A' for Active; 'I' for Inactive)
REMARK    1  A    between atoms: C_1  and  C_2
REMARK    2  A    between atoms: C_2  and  C_3
REMARK    3  A    between atoms: C_9  and  C_11
REMARK    4  A    between atoms: C_11  and  N_12
REMARK    5  A    between atoms: C_16  and  C_17
REMARK    6  A    between atoms: C_17  and  O_19
REMARK    7  A    between atoms: O_19  and  C_20
REMARK    8  A    between atoms: C_22  and  C_23
REMARK    9  A    between atoms: N_26  and  C_27
REMARK                            x       y       z     vdW  Elec       q    Type
REMARK                         _______ _______ _______ _____ _____    ______ ____
ROOT
ATOM      1  N   UNL     1      -0.295   0.119   0.831  0.00  0.00    -0.251 N 
ATOM      2  C   UNL     1       0.197  -1.126   0.723  0.00  0.00    +0.338 A 
ATOM      3  O   UNL     1      -0.532  -2.062   0.987  0.00  0.00    -0.246 OA
ATOM      4  N   UNL     1       1.454  -1.383   0.325  0.00  0.00    -0.246 N 
ATOM      5  C   UNL     1       2.324  -0.351   0.013  0.00  0.00    +0.155 A 
ATOM      6  C   UNL     1       1.859   0.971   0.115  0.00  0.00    +0.096 A 
ATOM      7  C   UNL     1       2.723   2.034  -0.197  0.00  0.00    +0.077 A 
ATOM      8  C   UNL     1       4.021   1.716  -0.600  0.00  0.00    +0.039 A 
ATOM      9  C   UNL     1       4.400   0.385  -0.675  0.00  0.00    +0.041 A 
ATOM     10  C   UNL     1       5.802   0.044  -1.110  0.00  0.00    +0.065 C 
ATOM     11  N   UNL     1       3.566  -0.590  -0.375  0.00  0.00    -0.233 NA
ATOM     12  C   UNL     1       0.470   1.197   0.550  0.00  0.00    +0.267 A 
ATOM     13  O   UNL     1       0.024   2.324   0.654  0.00  0.00    -0.267 OA
ENDROOT
BRANCH   4  14
ATOM     14  C   UNL     1       1.892  -2.710   0.231  0.00  0.00    +0.053 A 
ATOM     15  C   UNL     1       2.704  -3.101  -0.825  0.00  0.00    +0.026 A 
ATOM     16  C   UNL     1       3.140  -4.409  -0.912  0.00  0.00    +0.002 A 
ATOM     17  C   UNL     1       2.758  -5.331   0.045  0.00  0.00    +0.000 A 
ATOM     18  C   UNL     1       1.945  -4.946   1.095  0.00  0.00    +0.002 A 
ATOM     19  C   UNL     1       1.511  -3.638   1.191  0.00  0.00    +0.026 A 
ENDBRANCH   4  14
BRANCH   7  20
ATOM     20  C   UNL     1       2.272   3.442  -0.101  0.00  0.00    +0.340 C 
ATOM     21  O   UNL     1       1.259   3.795  -0.669  0.00  0.00    -0.245 OA
BRANCH  20  22
ATOM     22  O   UNL     1       2.987   4.330   0.615  0.00  0.00    -0.464 OA
ATOM     23  C   UNL     1       2.545   5.710   0.709  0.00  0.00    +0.280 C 
ENDBRANCH  20  22
ENDBRANCH   7  20
BRANCH   1  24
ATOM     24  C   UNL     1      -1.680   0.311   1.265  0.00  0.00    +0.225 C 
BRANCH  24  27
ATOM     25  C   UNL     1      -4.824   0.396  -0.929  0.00  0.00    +0.076 C 
ATOM     26  N   UNL     1      -3.914   0.497   0.220  0.00  0.00    -0.297 N 
ATOM     27  C   UNL     1      -2.586   0.331   0.061  0.00  0.00    +0.236 C 
ATOM     28  O   UNL     1      -2.121   0.197  -1.050  0.00  0.00    -0.274 OA
ATOM     29  C   UNL     1      -4.480   0.782   1.546  0.00  0.00    +0.108 C 
ATOM     30  C   UNL     1      -5.579  -0.243   1.844  0.00  0.00    +0.019 C 
ATOM     31  C   UNL     1      -6.604  -0.231   0.708  0.00  0.00    +0.003 C 
ATOM     32  C   UNL     1      -5.919  -0.624  -0.603  0.00  0.00    +0.022 C 
BRANCH  25  34
ATOM     33  C   UNL     1      -5.004  -0.225  -3.343  0.00  0.00    +0.006 C 
ATOM     34  C   UNL     1      -4.044  -0.065  -2.162  0.00  0.00    +0.019 C 
ENDBRANCH  25  34
ENDBRANCH  24  27
ENDBRANCH   1  24
TORSDOF 6
