REMARK  Name = m120
REMARK  4 active torsions:
REMARK  status: ('A' for Active; 'I' for Inactive)
REMARK    1  A    between atoms: C_1  and  O_2
REMARK    2  A    between atoms: O_2  and  C_3
REMARK    3  A    between atoms: C_6  and  C_7
REMARK    4  A    between atoms: C_11  and  C_12
REMARK                            x       y       z     vdW  Elec       q    Type
REMARK                         _______ _______ _______ _____ _____    ______ ____
ROOT
ATOM      1  C   UNL     1      -2.606   0.471  -0.007  0.00  0.00    +0.103 A 
ATOM      2  C   UNL     1      -1.599  -0.480   0.015  0.00  0.00    +0.134 A 
ATOM      3  N   UNL     1      -2.229  -1.729   0.072  0.00  0.00    -0.303 N 
ATOM      4  C   UNL     1      -1.799  -3.130   0.160  0.00  0.00    +0.148 C 
ATOM      5  C   UNL     1      -2.907  -4.103  -0.307  0.00  0.00    +0.197 C 
ATOM      6  S   UNL     1      -4.375  -3.048   0.046  0.00  0.00    +0.032 S 
ATOM      7  O   UNL     1      -5.259  -2.966  -1.064  0.00  0.00    -0.166 OA
ATOM      8  O   UNL     1      -4.830  -3.188   1.385  0.00  0.00    -0.166 OA
ATOM      9  C   UNL     1      -3.551  -1.467   0.045  0.00  0.00    +0.252 A 
ATOM     10  N   UNL     1      -3.774  -0.185   0.015  0.00  0.00    -0.211 NA
ENDROOT
BRANCH   2  11
ATOM     11  C   UNL     1      -0.158  -0.229  -0.009  0.00  0.00    +0.268 C 
ATOM     12  N   UNL     1       0.707  -1.262   0.026  0.00  0.00    -0.259 N 
ATOM     13  H   UNL     1       0.374  -2.172   0.066  0.00  0.00    +0.157 HD
ATOM     14  C   UNL     1       2.071  -1.024   0.003  0.00  0.00    +0.166 A 
ATOM     15  S   UNL     1       2.934   0.538  -0.077  0.00  0.00    -0.052 S 
ATOM     16  C   UNL     1       4.585  -0.118  -0.057  0.00  0.00    +0.043 A 
ATOM     17  C   UNL     1       4.355  -1.511   0.002  0.00  0.00    +0.080 A 
ATOM     18  C   UNL     1       5.504  -2.335   0.025  0.00  0.00    +0.032 A 
ATOM     19  C   UNL     1       6.760  -1.787  -0.009  0.00  0.00    +0.040 A 
ATOM     20  C   UNL     1       6.950  -0.412  -0.068  0.00  0.00    +0.125 A 
ATOM     21  F   UNL     1       8.198   0.104  -0.101  0.00  0.00    -0.205 F 
ATOM     22  C   UNL     1       5.846   0.424  -0.091  0.00  0.00    +0.055 A 
ATOM     23  N   UNL     1       3.058  -1.889   0.030  0.00  0.00    -0.225 NA
ATOM     24  O   UNL     1       0.260   0.913  -0.060  0.00  0.00    -0.268 OA
ENDBRANCH   2  11
BRANCH   1  28
ATOM     25  C   UNL     1      -2.086   4.688  -0.140  0.00  0.00    +0.120 A 
ATOM     26  C   UNL     1      -1.250   3.912   0.653  0.00  0.00    +0.046 A 
ATOM     27  C   UNL     1      -1.420   2.545   0.703  0.00  0.00    +0.013 A 
ATOM     28  C   UNL     1      -2.425   1.940  -0.053  0.00  0.00    +0.003 A 
ATOM     29  C   UNL     1      -3.259   2.723  -0.853  0.00  0.00    +0.013 A 
ATOM     30  C   UNL     1      -3.087   4.090  -0.893  0.00  0.00    +0.046 A 
BRANCH  25  32
ATOM     31  C   UNL     1      -0.827   6.345   0.686  0.00  0.00    +0.277 C 
ATOM     32  O   UNL     1      -1.919   6.036  -0.182  0.00  0.00    -0.495 OA
ENDBRANCH  25  32
ENDBRANCH   1  28
TORSDOF 3
