REMARK  Name = m121
REMARK  7 active torsions:
REMARK  status: ('A' for Active; 'I' for Inactive)
REMARK    1  A    between atoms: C_1  and  C_2
REMARK    2  A    between atoms: C_2  and  C_3
REMARK    3  A    between atoms: C_2  and  N_4
REMARK    4  A    between atoms: C_5  and  C_7
REMARK    5  A    between atoms: C_15  and  C_16
REMARK    6  A    between atoms: C_19  and  C_21
REMARK    7  A    between atoms: N_26  and  C_27
REMARK                            x       y       z     vdW  Elec       q    Type
REMARK                         _______ _______ _______ _____ _____    ______ ____
ROOT
ATOM      1  C   UNL     1       2.238  -0.497   0.105  0.00  0.00    +0.082 A 
ATOM      2  C   UNL     1       1.219  -0.880  -0.709  0.00  0.00    +0.011 A 
ATOM      3  C   UNL     1       0.937  -2.246  -0.882  0.00  0.00    +0.014 A 
ATOM      4  C   UNL     1       1.765  -3.138  -0.157  0.00  0.00    +0.109 A 
ATOM      5  N   UNL     1       1.621  -4.442  -0.212  0.00  0.00    -0.248 NA
ATOM      6  C   UNL     1       0.684  -4.996  -0.957  0.00  0.00    +0.112 A 
ATOM      7  C   UNL     1      -0.177  -4.206  -1.705  0.00  0.00    +0.020 A 
ATOM      8  C   UNL     1      -0.070  -2.847  -1.683  0.00  0.00    +0.012 A 
ATOM      9  S   UNL     1       2.876  -2.051   0.706  0.00  0.00    -0.064 S 
ENDROOT
BRANCH   2  10
ATOM     10  C   UNL     1       0.397   0.157  -1.430  0.00  0.00    +0.167 C 
ATOM     11  O   UNL     1       1.263   1.141  -1.995  0.00  0.00    -0.369 OA
ATOM     12  C   UNL     1       0.474   1.982  -2.835  0.00  0.00    +0.179 C 
ATOM     13  C   UNL     1      -0.479   2.819  -1.975  0.00  0.00    +0.136 C 
ATOM     14  N   UNL     1      -1.280   1.900  -1.149  0.00  0.00    -0.291 N 
ATOM     15  C   UNL     1      -2.617   2.035  -1.046  0.00  0.00    +0.267 C 
ATOM     16  O   UNL     1      -3.201   2.843  -1.742  0.00  0.00    -0.268 OA
ATOM     17  C   UNL     1      -0.563   0.826  -0.440  0.00  0.00    +0.144 C 
BRANCH  15  18
ATOM     18  C   UNL     1      -3.373   1.203  -0.086  0.00  0.00    +0.146 A 
ATOM     19  N   UNL     1      -2.735   0.553   0.861  0.00  0.00    -0.164 NA
ATOM     20  N   UNL     1      -3.346  -0.178   1.722  0.00  0.00    -0.232 N 
ATOM     21  C   UNL     1      -2.566  -0.867   2.753  0.00  0.00    +0.176 C 
ATOM     22  C   UNL     1      -4.683  -0.333   1.699  0.00  0.00    +0.267 A 
ATOM     23  O   UNL     1      -5.234  -1.039   2.527  0.00  0.00    -0.266 OA
ATOM     24  C   UNL     1      -5.444   0.327   0.709  0.00  0.00    +0.074 A 
ATOM     25  C   UNL     1      -4.781   1.104  -0.194  0.00  0.00    +0.040 A 
ENDBRANCH  15  18
ENDBRANCH   2  10
BRANCH   1  28
ATOM     26  N   UNL     1       3.732   1.048   1.262  0.00  0.00    -0.309 N 
ATOM     27  H   UNL     1       4.174   0.283   1.662  0.00  0.00    +0.149 HD
ATOM     28  C   UNL     1       2.697   0.864   0.418  0.00  0.00    +0.251 C 
ATOM     29  O   UNL     1       2.143   1.823  -0.084  0.00  0.00    -0.270 OA
BRANCH  26  31
ATOM     30  C   UNL     1       4.885   2.406   2.937  0.00  0.00    +0.027 C 
ATOM     31  C   UNL     1       4.190   2.404   1.574  0.00  0.00    +0.067 C 
ATOM     32  C   UNL     1       5.173   2.870   0.499  0.00  0.00    +0.027 C 
ENDBRANCH  26  31
ENDBRANCH   1  28
TORSDOF 4
