REMARK  Name = m122
REMARK  8 active torsions:
REMARK  status: ('A' for Active; 'I' for Inactive)
REMARK    1  A    between atoms: C_1  and  O_2
REMARK    2  A    between atoms: O_2  and  C_3
REMARK    3  A    between atoms: C_8  and  N_9
REMARK    4  A    between atoms: C_10  and  C_12
REMARK    5  A    between atoms: C_12  and  N_13
REMARK    6  A    between atoms: C_18  and  C_19
REMARK    7  A    between atoms: C_21  and  C_22
REMARK    8  A    between atoms: C_30  and  C_31
REMARK                            x       y       z     vdW  Elec       q    Type
REMARK                         _______ _______ _______ _____ _____    ______ ____
ROOT
ATOM      1  N   UNL     1       2.113  -1.666   0.507  0.00  0.00    -0.290 N 
ATOM      2  C   UNL     1       1.152  -0.869   1.012  0.00  0.00    +0.263 A 
ATOM      3  O   UNL     1       1.402  -0.077   1.904  0.00  0.00    -0.267 OA
ATOM      4  C   UNL     1      -0.214  -0.976   0.454  0.00  0.00    +0.076 A 
ATOM      5  C   UNL     1      -0.367  -1.937  -0.570  0.00  0.00    +0.116 A 
ATOM      6  S   UNL     1      -2.085  -1.809  -0.997  0.00  0.00    -0.063 S 
ATOM      7  C   UNL     1      -2.542  -0.526   0.156  0.00  0.00    +0.082 A 
ATOM      8  N   UNL     1       0.650  -2.678  -0.992  0.00  0.00    -0.230 NA
ATOM      9  C   UNL     1      -1.369  -0.266   0.799  0.00  0.00    -0.017 A 
ATOM     10  C   UNL     1      -1.316   0.783   1.879  0.00  0.00    +0.046 C 
ATOM     11  C   UNL     1       1.845  -2.556  -0.481  0.00  0.00    +0.203 A 
ENDROOT
BRANCH   7  12
ATOM     12  C   UNL     1      -3.857   0.096   0.361  0.00  0.00    +0.266 A 
ATOM     13  O   UNL     1      -4.158   1.059   1.249  0.00  0.00    -0.332 OA
ATOM     14  N   UNL     1      -5.332   1.351   1.158  0.00  0.00    -0.056 NA
ATOM     15  C   UNL     1      -5.912   0.626   0.235  0.00  0.00    +0.202 A 
ATOM     16  N   UNL     1      -4.975  -0.189  -0.288  0.00  0.00    -0.187 NA
BRANCH  15  17
ATOM     17  C   UNL     1      -7.342   0.690  -0.161  0.00  0.00    +0.025 A 
ATOM     18  C   UNL     1      -7.844  -0.136  -1.169  0.00  0.00    +0.031 A 
ATOM     19  C   UNL     1      -9.181  -0.049  -1.503  0.00  0.00    +0.111 A 
ATOM     20  N   UNL     1      -9.977   0.807  -0.892  0.00  0.00    -0.263 NA
ATOM     21  C   UNL     1      -9.541   1.609   0.060  0.00  0.00    +0.111 A 
ATOM     22  C   UNL     1      -8.220   1.582   0.459  0.00  0.00    +0.031 A 
ENDBRANCH  15  17
ENDBRANCH   7  12
BRANCH   1  23
ATOM     23  C   UNL     1       3.475  -1.575   1.040  0.00  0.00    +0.222 C 
BRANCH  23  26
ATOM     24  N   UNL     1       5.543  -0.305   0.563  0.00  0.00    -0.281 N 
ATOM     25  H   UNL     1       5.990  -0.836   1.240  0.00  0.00    +0.155 HD
ATOM     26  C   UNL     1       4.257  -0.558   0.250  0.00  0.00    +0.237 C 
ATOM     27  O   UNL     1       3.728   0.033  -0.668  0.00  0.00    -0.274 OA
BRANCH  24  29
ATOM     28  C   UNL     1       7.623   0.691  -0.172  0.00  0.00    +0.141 A 
ATOM     29  C   UNL     1       6.233   0.725  -0.090  0.00  0.00    +0.076 A 
ATOM     30  C   UNL     1       5.535   1.787  -0.647  0.00  0.00    +0.027 A 
ATOM     31  C   UNL     1       6.218   2.801  -1.290  0.00  0.00    +0.002 A 
ATOM     32  C   UNL     1       7.597   2.764  -1.376  0.00  0.00    +0.004 A 
ATOM     33  C   UNL     1       8.300   1.712  -0.819  0.00  0.00    +0.047 A 
BRANCH  28  35
ATOM     34  C   UNL     1       9.698  -0.097   0.124  0.00  0.00    +0.277 C 
ATOM     35  O   UNL     1       8.313  -0.344   0.376  0.00  0.00    -0.493 OA
ENDBRANCH  28  35
ENDBRANCH  24  29
ENDBRANCH  23  26
ENDBRANCH   1  23
TORSDOF 6
