REMARK  Name = m123
REMARK  8 active torsions:
REMARK  status: ('A' for Active; 'I' for Inactive)
REMARK    1  A    between atoms: C_1  and  C_2
REMARK    2  A    between atoms: C_6  and  N_7
REMARK    3  A    between atoms: C_8  and  C_10
REMARK    4  A    between atoms: C_10  and  N_11
REMARK    5  A    between atoms: C_16  and  C_17
REMARK    6  A    between atoms: C_19  and  C_20
REMARK    7  A    between atoms: C_28  and  C_29
REMARK    8  A    between atoms: C_33  and  C_34
REMARK                            x       y       z     vdW  Elec       q    Type
REMARK                         _______ _______ _______ _____ _____    ______ ____
ROOT
ATOM      1  N   UNL     1       2.105  -1.717   0.762  0.00  0.00    -0.290 N 
ATOM      2  C   UNL     1       1.168  -0.829   1.148  0.00  0.00    +0.263 A 
ATOM      3  O   UNL     1       1.441   0.071   1.922  0.00  0.00    -0.267 OA
ATOM      4  C   UNL     1      -0.201  -0.972   0.602  0.00  0.00    +0.076 A 
ATOM      5  C   UNL     1      -0.382  -2.061  -0.279  0.00  0.00    +0.116 A 
ATOM      6  S   UNL     1      -2.095  -1.942  -0.728  0.00  0.00    -0.063 S 
ATOM      7  C   UNL     1      -2.514  -0.498   0.234  0.00  0.00    +0.082 A 
ATOM      8  N   UNL     1       0.612  -2.883  -0.589  0.00  0.00    -0.230 NA
ATOM      9  C   UNL     1      -1.334  -0.187   0.840  0.00  0.00    -0.017 A 
ATOM     10  C   UNL     1      -1.250   1.000   1.765  0.00  0.00    +0.046 C 
ATOM     11  C   UNL     1       1.810  -2.727  -0.094  0.00  0.00    +0.203 A 
ENDROOT
BRANCH   7  12
ATOM     12  C   UNL     1      -3.809   0.185   0.344  0.00  0.00    +0.266 A 
ATOM     13  O   UNL     1      -4.082   1.271   1.089  0.00  0.00    -0.332 OA
ATOM     14  N   UNL     1      -5.246   1.582   0.952  0.00  0.00    -0.056 NA
ATOM     15  C   UNL     1      -5.847   0.755   0.136  0.00  0.00    +0.202 A 
ATOM     16  N   UNL     1      -4.934  -0.153  -0.265  0.00  0.00    -0.187 NA
BRANCH  15  17
ATOM     17  C   UNL     1      -7.274   0.806  -0.273  0.00  0.00    +0.025 A 
ATOM     18  C   UNL     1      -7.801  -0.137  -1.159  0.00  0.00    +0.031 A 
ATOM     19  C   UNL     1      -9.134  -0.057  -1.508  0.00  0.00    +0.111 A 
ATOM     20  N   UNL     1      -9.903   0.899  -1.026  0.00  0.00    -0.263 NA
ATOM     21  C   UNL     1      -9.444   1.812  -0.191  0.00  0.00    +0.111 A 
ATOM     22  C   UNL     1      -8.125   1.801   0.214  0.00  0.00    +0.031 A 
ENDBRANCH  15  17
ENDBRANCH   7  12
BRANCH   1  23
ATOM     23  C   UNL     1       3.468  -1.594   1.284  0.00  0.00    +0.222 C 
BRANCH  23  26
ATOM     24  N   UNL     1       5.574  -0.464   0.646  0.00  0.00    -0.284 N 
ATOM     25  H   UNL     1       5.957  -0.768   1.483  0.00  0.00    +0.155 HD
ATOM     26  C   UNL     1       4.281  -0.720   0.364  0.00  0.00    +0.237 C 
ATOM     27  O   UNL     1       3.772  -0.247  -0.629  0.00  0.00    -0.274 OA
BRANCH  24  32
ATOM     28  C   UNL     1       9.371   2.528  -0.246  0.00  0.00    +0.044 C 
ATOM     29  C   UNL     1       8.210   1.698  -0.730  0.00  0.00    -0.046 A 
ATOM     30  C   UNL     1       7.436   1.000   0.176  0.00  0.00    -0.026 A 
ATOM     31  C   UNL     1       7.749   1.072   1.648  0.00  0.00    +0.046 C 
ATOM     32  C   UNL     1       6.363   0.239  -0.270  0.00  0.00    +0.037 A 
ATOM     33  C   UNL     1       6.079   0.175  -1.628  0.00  0.00    +0.023 A 
ATOM     34  C   UNL     1       6.860   0.871  -2.530  0.00  0.00    +0.002 A 
ATOM     35  C   UNL     1       7.924   1.632  -2.082  0.00  0.00    +0.004 A 
ENDBRANCH  24  32
ENDBRANCH  23  26
ENDBRANCH   1  23
TORSDOF 5
