REMARK  Name = m124
REMARK  10 active torsions:
REMARK  status: ('A' for Active; 'I' for Inactive)
REMARK    1  A    between atoms: C_1  and  O_2
REMARK    2  A    between atoms: O_2  and  C_3
REMARK    3  A    between atoms: C_3  and  C_5
REMARK    4  A    between atoms: C_7  and  C_8
REMARK    5  A    between atoms: N_14  and  C_15
REMARK    6  A    between atoms: C_15  and  C_16
REMARK    7  A    between atoms: C_21  and  C_22
REMARK    8  A    between atoms: N_27  and  C_28
REMARK    9  A    between atoms: C_32  and  O_33
REMARK   10  A    between atoms: O_33  and  C_34
REMARK                            x       y       z     vdW  Elec       q    Type
REMARK                         _______ _______ _______ _____ _____    ______ ____
ROOT
ATOM      1  C   UNL     1       2.277   2.785  -0.086  0.00  0.00    +0.077 A 
ATOM      2  C   UNL     1       1.533   1.605   0.075  0.00  0.00    +0.096 A 
ATOM      3  C   UNL     1       0.104   1.626   0.431  0.00  0.00    +0.267 A 
ATOM      4  N   UNL     1      -0.541   0.445   0.556  0.00  0.00    -0.251 N 
ATOM      5  C   UNL     1       0.101  -0.718   0.362  0.00  0.00    +0.338 A 
ATOM      6  N   UNL     1       1.403  -0.789   0.041  0.00  0.00    -0.246 N 
ATOM      7  O   UNL     1      -0.524  -1.753   0.486  0.00  0.00    -0.246 OA
ATOM      8  O   UNL     1      -0.480   2.678   0.608  0.00  0.00    -0.267 OA
ATOM      9  C   UNL     1       2.159   0.361  -0.118  0.00  0.00    +0.155 A 
ATOM     10  N   UNL     1       3.441   0.305  -0.438  0.00  0.00    -0.233 NA
ATOM     11  C   UNL     1       4.167   1.394  -0.591  0.00  0.00    +0.041 A 
ATOM     12  C   UNL     1       5.623   1.261  -0.957  0.00  0.00    +0.065 C 
ATOM     13  C   UNL     1       3.626   2.659  -0.424  0.00  0.00    +0.039 A 
ENDROOT
BRANCH   6  14
ATOM     14  C   UNL     1       2.002  -2.042  -0.146  0.00  0.00    +0.056 A 
ATOM     15  C   UNL     1       1.680  -3.098   0.693  0.00  0.00    +0.072 A 
ATOM     16  C   UNL     1       2.270  -4.338   0.500  0.00  0.00    +0.122 A 
ATOM     17  C   UNL     1       3.190  -4.516  -0.523  0.00  0.00    +0.046 A 
ATOM     18  C   UNL     1       3.514  -3.461  -1.355  0.00  0.00    +0.006 A 
ATOM     19  C   UNL     1       2.924  -2.225  -1.170  0.00  0.00    +0.026 A 
BRANCH  16  20
ATOM     20  O   UNL     1       1.952  -5.376   1.317  0.00  0.00    -0.495 OA
ATOM     21  C   UNL     1       2.718  -6.499   0.875  0.00  0.00    +0.277 C 
ENDBRANCH  16  20
ENDBRANCH   6  14
BRANCH   1  22
ATOM     22  C   UNL     1       1.655   4.115   0.104  0.00  0.00    +0.340 C 
ATOM     23  O   UNL     1       0.635   4.399  -0.492  0.00  0.00    -0.245 OA
BRANCH  22  25
ATOM     24  C   UNL     1       1.609   6.315   1.122  0.00  0.00    +0.280 C 
ATOM     25  O   UNL     1       2.219   5.011   0.937  0.00  0.00    -0.464 OA
ENDBRANCH  22  25
ENDBRANCH   1  22
BRANCH   4  26
ATOM     26  C   UNL     1      -1.962   0.434   0.909  0.00  0.00    +0.225 C 
BRANCH  26  27
ATOM     27  C   UNL     1      -2.792   0.471  -0.348  0.00  0.00    +0.236 C 
ATOM     28  N   UNL     1      -4.138   0.468  -0.268  0.00  0.00    -0.300 N 
ATOM     29  C   UNL     1      -4.810   0.423   1.038  0.00  0.00    +0.108 C 
ATOM     30  C   UNL     1      -5.800  -0.741   1.048  0.00  0.00    +0.022 C 
ATOM     31  C   UNL     1      -6.750  -0.609  -0.144  0.00  0.00    -0.011 C 
ATOM     32  C   UNL     1      -7.762  -1.756  -0.118  0.00  0.00    +0.007 C 
ATOM     33  C   UNL     1      -5.949  -0.666  -1.447  0.00  0.00    +0.022 C 
ATOM     34  C   UNL     1      -4.960   0.504  -1.485  0.00  0.00    +0.108 C 
ATOM     35  O   UNL     1      -2.250   0.504  -1.432  0.00  0.00    -0.274 OA
ENDBRANCH  26  27
ENDBRANCH   4  26
TORSDOF 6
