REMARK  Name = m125
REMARK  5 active torsions:
REMARK  status: ('A' for Active; 'I' for Inactive)
REMARK    1  A    between atoms: C_1  and  O_2
REMARK    2  A    between atoms: O_2  and  C_3
REMARK    3  A    between atoms: C_9  and  N_10
REMARK    4  A    between atoms: C_11  and  C_13
REMARK    5  A    between atoms: C_13  and  N_14
REMARK                            x       y       z     vdW  Elec       q    Type
REMARK                         _______ _______ _______ _____ _____    ______ ____
ROOT
ATOM      1  N   UNL     1      -0.410  -0.673   1.319  0.00  0.00    -0.203 N 
ATOM      2  C   UNL     1      -0.996  -1.791   0.842  0.00  0.00    +0.352 A 
ATOM      3  O   UNL     1      -0.547  -2.922   0.908  0.00  0.00    -0.244 OA
ATOM      4  N   UNL     1      -2.167  -1.433   0.283  0.00  0.00    -0.239 N 
ATOM      5  C   UNL     1      -2.307  -0.060   0.408  0.00  0.00    +0.203 A 
ATOM      6  C   UNL     1      -3.513   0.583  -0.134  0.00  0.00    +0.167 A 
ATOM      7  N   UNL     1      -4.433  -0.141  -0.724  0.00  0.00    -0.227 NA
ATOM      8  C   UNL     1      -4.304  -1.490  -0.851  0.00  0.00    +0.090 A 
ATOM      9  C   UNL     1      -5.310  -2.226  -1.488  0.00  0.00    +0.030 A 
ATOM     10  C   UNL     1      -5.184  -3.592  -1.619  0.00  0.00    +0.002 A 
ATOM     11  C   UNL     1      -4.067  -4.244  -1.123  0.00  0.00    +0.002 A 
ATOM     12  C   UNL     1      -3.066  -3.532  -0.493  0.00  0.00    +0.028 A 
ATOM     13  N   UNL     1      -3.677   1.950  -0.023  0.00  0.00    -0.308 N 
ATOM     14  C   UNL     1      -2.664   2.790   0.639  0.00  0.00    +0.134 C 
ATOM     15  C   UNL     1      -3.377   3.732   1.607  0.00  0.00    +0.178 C 
ATOM     16  O   UNL     1      -4.369   4.482   0.906  0.00  0.00    -0.377 OA
ATOM     17  C   UNL     1      -5.403   3.578   0.518  0.00  0.00    +0.178 C 
ATOM     18  C   UNL     1      -4.873   2.622  -0.556  0.00  0.00    +0.134 C 
ATOM     19  C   UNL     1      -3.175  -2.156  -0.352  0.00  0.00    +0.078 A 
ATOM     20  N   UNL     1      -1.257   0.406   1.029  0.00  0.00    -0.145 NA
ENDROOT
BRANCH   1  21
ATOM     21  C   UNL     1       0.880  -0.600   2.009  0.00  0.00    +0.244 C 
BRANCH  21  24
ATOM     22  N   UNL     1       3.260  -0.296   1.406  0.00  0.00    -0.281 N 
ATOM     23  H   UNL     1       3.485  -0.442   2.338  0.00  0.00    +0.155 HD
ATOM     24  C   UNL     1       1.979  -0.394   0.998  0.00  0.00    +0.239 C 
ATOM     25  O   UNL     1       1.711  -0.316  -0.182  0.00  0.00    -0.273 OA
BRANCH  22  27
ATOM     26  C   UNL     1       5.585  -0.360   0.733  0.00  0.00    +0.141 A 
ATOM     27  C   UNL     1       4.267   0.016   0.483  0.00  0.00    +0.077 A 
ATOM     28  C   UNL     1       3.956   0.709  -0.678  0.00  0.00    +0.047 A 
ATOM     29  C   UNL     1       4.952   1.016  -1.587  0.00  0.00    +0.043 A 
ATOM     30 CL   UNL     1       4.560   1.878  -3.043  0.00  0.00    -0.083 Cl
ATOM     31  C   UNL     1       6.259   0.637  -1.340  0.00  0.00    +0.024 A 
ATOM     32  C   UNL     1       6.577  -0.050  -0.183  0.00  0.00    +0.049 A 
BRANCH  26  34
ATOM     33  C   UNL     1       7.303  -1.280   1.835  0.00  0.00    +0.277 C 
ATOM     34  O   UNL     1       5.896  -1.036   1.872  0.00  0.00    -0.493 OA
ENDBRANCH  26  34
ENDBRANCH  22  27
ENDBRANCH  21  24
ENDBRANCH   1  21
TORSDOF 4
