REMARK  Name = m126
REMARK  13 active torsions:
REMARK  status: ('A' for Active; 'I' for Inactive)
REMARK    1  A    between atoms: C_1  and  C_2
REMARK    2  A    between atoms: C_2  and  O_3
REMARK    3  A    between atoms: O_3  and  C_4
REMARK    4  A    between atoms: C_4  and  C_6
REMARK    5  A    between atoms: C_8  and  N_9
REMARK    6  A    between atoms: C_10  and  C_12
REMARK    7  A    between atoms: C_14  and  C_15
REMARK    8  A    between atoms: C_22  and  C_23
REMARK    9  A    between atoms: C_27  and  C_28
REMARK   10  A    between atoms: C_28  and  O_30
REMARK   11  A    between atoms: O_30  and  C_31
REMARK   12  A    between atoms: C_31  and  C_32
REMARK   13  A    between atoms: C_33  and  C_34
REMARK                            x       y       z     vdW  Elec       q    Type
REMARK                         _______ _______ _______ _____ _____    ______ ____
ROOT
ATOM      1  N   UNL     1       1.182  -0.631  -0.305  0.00  0.00    -0.274 N 
ATOM      2  H   UNL     1       0.926  -1.555  -0.457  0.00  0.00    +0.156 HD
ATOM      3  C   UNL     1       0.236   0.320  -0.180  0.00  0.00    +0.270 C 
ATOM      4  O   UNL     1       0.557   1.475   0.011  0.00  0.00    -0.268 OA
ENDROOT
BRANCH   1   9
ATOM      5  C   UNL     1       4.941   0.810   0.018  0.00  0.00    +0.102 A 
ATOM      6  C   UNL     1       4.888  -0.540  -0.201  0.00  0.00    -0.014 A 
ATOM      7  C   UNL     1       6.146  -1.364  -0.299  0.00  0.00    +0.046 C 
ATOM      8  C   UNL     1       3.637  -1.125  -0.319  0.00  0.00    +0.091 A 
ATOM      9  C   UNL     1       2.517  -0.292  -0.217  0.00  0.00    +0.087 A 
ATOM     10  S   UNL     1       3.219   1.270   0.047  0.00  0.00    -0.066 S 
BRANCH   5  11
ATOM     11  C   UNL     1       6.117   1.664   0.183  0.00  0.00    +0.346 C 
ATOM     12  O   UNL     1       7.232   1.179   0.135  0.00  0.00    -0.244 OA
BRANCH  11  13
ATOM     13  O   UNL     1       5.966   2.989   0.388  0.00  0.00    -0.461 OA
BRANCH  13  15
ATOM     14  C   UNL     1       7.178   5.049   0.743  0.00  0.00    +0.048 C 
ATOM     15  C   UNL     1       7.279   3.540   0.508  0.00  0.00    +0.229 C 
ENDBRANCH  13  15
ENDBRANCH  11  13
ENDBRANCH   5  11
BRANCH   8  16
ATOM     16  C   UNL     1       3.492  -2.567  -0.549  0.00  0.00    +0.342 C 
ATOM     17  O   UNL     1       3.458  -3.001  -1.685  0.00  0.00    -0.245 OA
BRANCH  16  18
ATOM     18  O   UNL     1       3.396  -3.411   0.498  0.00  0.00    -0.461 OA
BRANCH  18  19
ATOM     19  C   UNL     1       3.253  -4.838   0.270  0.00  0.00    +0.229 C 
ATOM     20  C   UNL     1       3.166  -5.563   1.614  0.00  0.00    +0.048 C 
ENDBRANCH  18  19
ENDBRANCH  16  18
ENDBRANCH   8  16
ENDBRANCH   1   9
BRANCH   3  21
ATOM     21  C   UNL     1      -1.199  -0.045  -0.274  0.00  0.00    +0.169 A 
ATOM     22  N   UNL     1      -1.694  -1.242  -0.481  0.00  0.00    -0.073 NA
ATOM     23  O   UNL     1      -2.902  -1.229  -0.505  0.00  0.00    -0.354 OA
ATOM     24  C   UNL     1      -3.391   0.011  -0.322  0.00  0.00    +0.168 A 
ATOM     25  C   UNL     1      -2.309   0.832  -0.165  0.00  0.00    +0.086 A 
BRANCH  24  26
ATOM     26  C   UNL     1      -4.814   0.407  -0.297  0.00  0.00    +0.020 A 
ATOM     27  C   UNL     1      -5.760  -0.407   0.332  0.00  0.00    +0.019 A 
ATOM     28  C   UNL     1      -7.081  -0.028   0.354  0.00  0.00    -0.002 A 
ATOM     29  C   UNL     1      -8.318  -0.690   0.932  0.00  0.00    +0.083 C 
ATOM     30  C   UNL     1      -9.455   0.086   0.227  0.00  0.00    +0.175 C 
ATOM     31  O   UNL     1      -8.835   1.344  -0.088  0.00  0.00    -0.488 OA
ATOM     32  C   UNL     1     -10.641   0.287   1.172  0.00  0.00    +0.052 C 
ATOM     33  C   UNL     1      -7.495   1.157  -0.243  0.00  0.00    +0.124 A 
ATOM     34  C   UNL     1      -6.551   1.963  -0.878  0.00  0.00    +0.046 A 
ATOM     35  C   UNL     1      -5.225   1.594  -0.906  0.00  0.00    +0.015 A 
ENDBRANCH  24  26
ENDBRANCH   3  21
TORSDOF 9
