REMARK  Name = m127
REMARK  5 active torsions:
REMARK  status: ('A' for Active; 'I' for Inactive)
REMARK    1  A    between atoms: C_1  and  C_2
REMARK    2  A    between atoms: C_18  and  C_19
REMARK    3  A    between atoms: C_22  and  O_23
REMARK    4  A    between atoms: O_23  and  C_24
REMARK    5  A    between atoms: C_24  and  C_25
REMARK                            x       y       z     vdW  Elec       q    Type
REMARK                         _______ _______ _______ _____ _____    ______ ____
ROOT
ATOM      1  C   UNL     1      -4.756   2.842  -2.326  0.00  0.00    +0.090 C 
ATOM      2  C   UNL     1      -5.345   2.716  -0.945  0.00  0.00    +0.152 A 
ATOM      3  N   UNL     1      -5.046   1.763  -0.035  0.00  0.00    -0.195 N 
ATOM      4  C   UNL     1      -5.812   2.041   1.071  0.00  0.00    +0.178 A 
ATOM      5  C   UNL     1      -5.715   1.211   2.203  0.00  0.00    +0.054 A 
ATOM      6  C   UNL     1      -4.859   0.154   2.178  0.00  0.00    +0.054 A 
ATOM      7  C   UNL     1      -4.083  -0.099   1.031  0.00  0.00    +0.176 A 
ATOM      8  N   UNL     1      -3.207  -1.187   1.017  0.00  0.00    -0.198 N 
ATOM      9  C   UNL     1      -2.409  -1.555  -0.007  0.00  0.00    +0.134 A 
ATOM     10  N   UNL     1      -2.228  -0.986  -1.267  0.00  0.00    -0.270 N 
ATOM     11  H   UNL     1      -2.571  -0.101  -1.470  0.00  0.00    +0.156 HD
ATOM     12  C   UNL     1      -1.560  -1.702  -2.197  0.00  0.00    +0.219 C 
ATOM     13  C   UNL     1      -1.141  -3.125  -1.964  0.00  0.00    +0.109 C 
ATOM     14  C   UNL     1      -0.721  -3.357  -0.513  0.00  0.00    +0.063 C 
ATOM     15  O   UNL     1      -1.289  -1.178  -3.257  0.00  0.00    -0.275 OA
ATOM     16  C   UNL     1      -1.713  -2.667   0.388  0.00  0.00    +0.020 A 
ATOM     17  C   UNL     1      -2.107  -2.982   1.680  0.00  0.00    +0.141 A 
ATOM     18  N   UNL     1      -3.001  -2.100   2.064  0.00  0.00    -0.171 NA
ATOM     19  N   UNL     1      -6.527   3.116   0.782  0.00  0.00    -0.128 NA
ATOM     20  N   UNL     1      -4.173   0.674  -0.026  0.00  0.00    -0.144 NA
ATOM     21  N   UNL     1      -6.243   3.507  -0.412  0.00  0.00    -0.132 NA
ENDROOT
BRANCH  14  22
ATOM     22  C   UNL     1       0.651  -2.776  -0.283  0.00  0.00    -0.039 A 
ATOM     23  C   UNL     1       0.872  -1.426  -0.485  0.00  0.00    +0.008 A 
ATOM     24  C   UNL     1       2.126  -0.890  -0.270  0.00  0.00    +0.046 A 
ATOM     25  C   UNL     1       3.168  -1.710   0.140  0.00  0.00    +0.121 A 
ATOM     26  C   UNL     1       2.945  -3.065   0.338  0.00  0.00    +0.046 A 
ATOM     27  C   UNL     1       1.687  -3.595   0.126  0.00  0.00    +0.008 A 
BRANCH  25  28
ATOM     28  O   UNL     1       4.405  -1.186   0.348  0.00  0.00    -0.487 OA
BRANCH  28  29
ATOM     29  C   UNL     1       4.314   0.212   0.065  0.00  0.00    +0.266 C 
BRANCH  29  30
ATOM     30  C   UNL     1       5.660   0.855   0.277  0.00  0.00    +0.008 A 
ATOM     31  C   UNL     1       5.821   2.212   0.058  0.00  0.00    +0.047 A 
ATOM     32 CL   UNL     1       4.470   3.174  -0.455  0.00  0.00    -0.083 Cl
ATOM     33  C   UNL     1       7.055   2.803   0.259  0.00  0.00    +0.020 A 
ATOM     34  C   UNL     1       8.130   2.037   0.667  0.00  0.00    +0.001 A 
ATOM     35  C   UNL     1       7.971   0.680   0.880  0.00  0.00    +0.000 A 
ATOM     36  C   UNL     1       6.736   0.089   0.685  0.00  0.00    +0.008 A 
ENDBRANCH  29  30
ENDBRANCH  28  29
ENDBRANCH  25  28
ENDBRANCH  14  22
TORSDOF 4
