REMARK  Name = m128
REMARK  12 active torsions:
REMARK  status: ('A' for Active; 'I' for Inactive)
REMARK    1  A    between atoms: C_1  and  C_2
REMARK    2  A    between atoms: C_2  and  O_3
REMARK    3  A    between atoms: O_3  and  C_4
REMARK    4  A    between atoms: C_4  and  C_6
REMARK    5  A    between atoms: C_8  and  C_9
REMARK    6  A    between atoms: N_15  and  C_16
REMARK    7  A    between atoms: C_16  and  C_17
REMARK    8  A    between atoms: C_19  and  C_20
REMARK    9  A    between atoms: C_23  and  O_24
REMARK   10  A    between atoms: O_24  and  C_25
REMARK   11  A    between atoms: C_29  and  C_30
REMARK   12  A    between atoms: N_33  and  C_34
REMARK                            x       y       z     vdW  Elec       q    Type
REMARK                         _______ _______ _______ _____ _____    ______ ____
ROOT
ATOM      1  C   UNL     1       3.874  -0.269  -0.695  0.00  0.00    +0.077 A 
ATOM      2  C   UNL     1       2.772  -0.737   0.039  0.00  0.00    +0.096 A 
ATOM      3  C   UNL     1       1.893   0.174   0.792  0.00  0.00    +0.267 A 
ATOM      4  N   UNL     1       0.848  -0.358   1.463  0.00  0.00    -0.254 N 
ATOM      5  C   UNL     1       0.614  -1.680   1.445  0.00  0.00    +0.334 A 
ATOM      6  N   UNL     1       1.389  -2.550   0.778  0.00  0.00    -0.281 N 
ATOM      7  C   UNL     1       1.066  -3.979   0.809  0.00  0.00    +0.155 C 
ATOM      8  O   UNL     1      -0.341  -2.109   2.065  0.00  0.00    -0.246 OA
ATOM      9  O   UNL     1       2.102   1.371   0.809  0.00  0.00    -0.267 OA
ATOM     10  C   UNL     1       2.484  -2.112   0.052  0.00  0.00    +0.151 A 
ATOM     11  N   UNL     1       3.252  -2.959  -0.613  0.00  0.00    -0.234 NA
ATOM     12  C   UNL     1       4.297  -2.551  -1.306  0.00  0.00    +0.041 A 
ATOM     13  C   UNL     1       5.132  -3.568  -2.042  0.00  0.00    +0.065 C 
ATOM     14  C   UNL     1       4.646  -1.213  -1.376  0.00  0.00    +0.039 A 
ENDROOT
BRANCH   1  15
ATOM     15  C   UNL     1       4.209   1.173  -0.739  0.00  0.00    +0.340 C 
ATOM     16  O   UNL     1       3.361   1.984  -1.051  0.00  0.00    -0.245 OA
BRANCH  15  17
ATOM     17  O   UNL     1       5.455   1.585  -0.434  0.00  0.00    -0.461 OA
BRANCH  17  19
ATOM     18  C   UNL     1       7.251   3.193  -0.091  0.00  0.00    +0.048 C 
ATOM     19  C   UNL     1       5.783   2.998  -0.478  0.00  0.00    +0.229 C 
ENDBRANCH  17  19
ENDBRANCH  15  17
ENDBRANCH   1  15
BRANCH   4  20
ATOM     20  C   UNL     1      -0.045   0.522   2.222  0.00  0.00    +0.188 C 
BRANCH  20  21
ATOM     21  C   UNL     1      -1.170   0.984   1.333  0.00  0.00    +0.103 A 
ATOM     22  C   UNL     1      -1.172   2.090   0.568  0.00  0.00    +0.127 A 
ATOM     23  C   UNL     1      -0.051   3.088   0.438  0.00  0.00    +0.088 C 
ATOM     24  O   UNL     1      -2.360   2.134  -0.069  0.00  0.00    -0.440 OA
ATOM     25  C   UNL     1      -3.072   1.063   0.320  0.00  0.00    +0.228 A 
ATOM     26  N   UNL     1      -2.351   0.367   1.168  0.00  0.00    -0.212 NA
BRANCH  25  27
ATOM     27  C   UNL     1      -4.438   0.724  -0.132  0.00  0.00    +0.037 A 
ATOM     28  C   UNL     1      -5.068  -0.426   0.346  0.00  0.00    +0.017 A 
ATOM     29  C   UNL     1      -6.344  -0.736  -0.074  0.00  0.00    +0.046 A 
ATOM     30  C   UNL     1      -6.998   0.089  -0.980  0.00  0.00    +0.120 A 
ATOM     31  C   UNL     1      -6.372   1.232  -1.462  0.00  0.00    +0.046 A 
ATOM     32  C   UNL     1      -5.099   1.551  -1.042  0.00  0.00    +0.017 A 
BRANCH  30  33
ATOM     33  O   UNL     1      -8.253  -0.222  -1.395  0.00  0.00    -0.495 OA
ATOM     34  C   UNL     1      -8.619  -1.434  -0.733  0.00  0.00    +0.277 C 
ENDBRANCH  30  33
ENDBRANCH  25  27
ENDBRANCH  20  21
ENDBRANCH   4  20
TORSDOF 7
