REMARK  Name = m129
REMARK  9 active torsions:
REMARK  status: ('A' for Active; 'I' for Inactive)
REMARK    1  A    between atoms: C_1  and  C_2
REMARK    2  A    between atoms: C_4  and  C_5
REMARK    3  A    between atoms: C_6  and  C_7
REMARK    4  A    between atoms: C_13  and  C_14
REMARK    5  A    between atoms: C_15  and  C_16
REMARK    6  A    between atoms: N_18  and  C_19
REMARK    7  A    between atoms: N_18  and  C_20
REMARK    8  A    between atoms: C_20  and  C_21
REMARK    9  A    between atoms: C_21  and  O_22
REMARK                            x       y       z     vdW  Elec       q    Type
REMARK                         _______ _______ _______ _____ _____    ______ ____
ROOT
ATOM      1  C   UNL     1      -1.585  -0.732   0.255  0.00  0.00    +0.011 A 
ATOM      2  C   UNL     1      -2.126  -2.026   0.345  0.00  0.00    +0.014 A 
ATOM      3  C   UNL     1      -3.479  -2.152  -0.056  0.00  0.00    +0.109 A 
ATOM      4  N   UNL     1      -4.123  -3.297  -0.024  0.00  0.00    -0.248 NA
ATOM      5  C   UNL     1      -3.535  -4.401   0.394  0.00  0.00    +0.112 A 
ATOM      6  C   UNL     1      -2.212  -4.378   0.813  0.00  0.00    +0.020 A 
ATOM      7  S   UNL     1      -3.916  -0.500  -0.540  0.00  0.00    -0.064 S 
ATOM      8  C   UNL     1      -1.499  -3.216   0.800  0.00  0.00    +0.012 A 
ATOM      9  C   UNL     1      -2.353   0.292  -0.204  0.00  0.00    +0.082 A 
ENDROOT
BRANCH   1  13
ATOM     10  C   UNL     1       3.149  -0.592  -0.691  0.00  0.00    +0.284 C 
ATOM     11  N   UNL     1       2.075   0.033  -0.167  0.00  0.00    -0.290 N 
ATOM     12  C   UNL     1       0.708  -0.304  -0.599  0.00  0.00    +0.144 C 
ATOM     13  C   UNL     1      -0.156  -0.481   0.660  0.00  0.00    +0.167 C 
ATOM     14  O   UNL     1      -0.087   0.703   1.454  0.00  0.00    -0.369 OA
ATOM     15  C   UNL     1       1.233   0.793   1.986  0.00  0.00    +0.179 C 
ATOM     16  C   UNL     1       2.225   1.083   0.855  0.00  0.00    +0.136 C 
ATOM     17  O   UNL     1       2.996  -1.535  -1.444  0.00  0.00    -0.267 OA
BRANCH  10  21
ATOM     18  C   UNL     1       6.949   2.091   1.153  0.00  0.00    +0.109 C 
ATOM     19  C   UNL     1       6.159   1.022   0.442  0.00  0.00    +0.194 A 
ATOM     20  O   UNL     1       4.826   0.964   0.368  0.00  0.00    -0.435 OA
ATOM     21  C   UNL     1       4.501  -0.134  -0.353  0.00  0.00    +0.212 A 
ATOM     22  C   UNL     1       5.674  -0.736  -0.700  0.00  0.00    +0.089 A 
ATOM     23  C   UNL     1       5.823  -2.001  -1.505  0.00  0.00    +0.070 C 
ATOM     24  N   UNL     1       6.668   0.001  -0.195  0.00  0.00    -0.218 NA
ENDBRANCH  10  21
ENDBRANCH   1  13
BRANCH   9  25
ATOM     25  C   UNL     1      -1.985   1.704  -0.381  0.00  0.00    +0.253 C 
ATOM     26  N   UNL     1      -2.910   2.595  -0.790  0.00  0.00    -0.298 N 
ATOM     27  C   UNL     1      -2.576   4.020  -0.854  0.00  0.00    +0.132 C 
ATOM     28  O   UNL     1      -0.846   2.069  -0.158  0.00  0.00    -0.269 OA
BRANCH  26  29
ATOM     29  C   UNL     1      -4.249   2.139  -1.171  0.00  0.00    +0.135 C 
BRANCH  29  30
ATOM     30  C   UNL     1      -5.096   1.938   0.087  0.00  0.00    +0.174 C 
BRANCH  30  31
ATOM     31  O   UNL     1      -5.295   3.198   0.733  0.00  0.00    -0.393 OA
ATOM     32  H   UNL     1      -5.832   3.027   1.519  0.00  0.00    +0.209 HD
ENDBRANCH  30  31
ENDBRANCH  29  30
ENDBRANCH  26  29
ENDBRANCH   9  25
TORSDOF 6
