REMARK  Name = m130
REMARK  5 active torsions:
REMARK  status: ('A' for Active; 'I' for Inactive)
REMARK    1  A    between atoms: C_1  and  N_2
REMARK    2  A    between atoms: N_5  and  C_6
REMARK    3  A    between atoms: C_6  and  C_7
REMARK    4  A    between atoms: N_16  and  C_17
REMARK    5  A    between atoms: C_24  and  C_25
REMARK                            x       y       z     vdW  Elec       q    Type
REMARK                         _______ _______ _______ _____ _____    ______ ____
ROOT
ATOM      1  C   UNL     1       3.013   3.328  -0.423  0.00  0.00    +0.155 C 
ATOM      2  N   UNL     1       2.926   1.865  -0.429  0.00  0.00    -0.279 N 
ATOM      3  C   UNL     1       1.688   1.245  -0.359  0.00  0.00    +0.170 A 
ATOM      4  N   UNL     1       0.437   1.694  -0.288  0.00  0.00    -0.193 NA
ATOM      5  C   UNL     1      -0.409   0.676  -0.254  0.00  0.00    +0.223 A 
ATOM      6  N   UNL     1       0.292  -0.489  -0.299  0.00  0.00    -0.277 N 
ATOM      7  C   UNL     1      -0.605  -1.537  -0.268  0.00  0.00    +0.121 A 
ATOM      8  C   UNL     1      -1.847  -1.029  -0.196  0.00  0.00    +0.074 A 
ATOM      9  N   UNL     1      -1.742   0.357  -0.186  0.00  0.00    -0.275 N 
ATOM     10  C   UNL     1       1.635  -0.148  -0.372  0.00  0.00    +0.157 A 
ATOM     11  C   UNL     1       2.832  -0.879  -0.443  0.00  0.00    +0.283 A 
ATOM     12  O   UNL     1       2.809  -2.098  -0.450  0.00  0.00    -0.265 OA
ATOM     13  N   UNL     1       4.006  -0.219  -0.504  0.00  0.00    -0.250 N 
ATOM     14  C   UNL     1       4.048   1.124  -0.497  0.00  0.00    +0.334 A 
ATOM     15  O   UNL     1       5.126   1.685  -0.553  0.00  0.00    -0.246 OA
ENDROOT
BRANCH   9  16
ATOM     16  C   UNL     1      -2.807   1.266  -0.120  0.00  0.00    +0.085 A 
ATOM     17  C   UNL     1      -3.276   1.700   1.114  0.00  0.00    +0.147 A 
ATOM     18  F   UNL     1      -2.703   1.251   2.252  0.00  0.00    -0.203 F 
ATOM     19  C   UNL     1      -4.324   2.601   1.175  0.00  0.00    +0.040 A 
ATOM     20  C   UNL     1      -4.910   3.060   0.009  0.00  0.00    +0.003 A 
ATOM     21  C   UNL     1      -4.448   2.625  -1.219  0.00  0.00    +0.002 A 
ATOM     22  C   UNL     1      -3.398   1.730  -1.287  0.00  0.00    +0.029 A 
ENDBRANCH   9  16
BRANCH   8  23
ATOM     23  C   UNL     1      -3.104  -1.807  -0.138  0.00  0.00    +0.000 A 
ATOM     24  C   UNL     1      -4.144  -1.398   0.698  0.00  0.00    +0.010 A 
ATOM     25  C   UNL     1      -5.316  -2.124   0.743  0.00  0.00    +0.001 A 
ATOM     26  C   UNL     1      -5.457  -3.263  -0.030  0.00  0.00    +0.000 A 
ATOM     27  C   UNL     1      -4.428  -3.677  -0.857  0.00  0.00    +0.001 A 
ATOM     28  C   UNL     1      -3.253  -2.956  -0.915  0.00  0.00    +0.010 A 
ENDBRANCH   8  23
BRANCH  13  29
ATOM     29  C   UNL     1       5.257  -0.978  -0.579  0.00  0.00    +0.225 C 
BRANCH  29  30
ATOM     30  C   UNL     1       5.765  -1.249   0.814  0.00  0.00    +0.231 C 
ATOM     31  O   UNL     1       5.143  -0.847   1.774  0.00  0.00    -0.274 OA
ATOM     32  N   UNL     1       6.910  -1.937   0.992  0.00  0.00    -0.328 N 
ATOM     33  H   UNL     1       7.236  -2.111   1.888  0.00  0.00    +0.145 HD
ATOM     34  H   UNL     1       7.407  -2.259   0.223  0.00  0.00    +0.145 HD
ENDBRANCH  29  30
ENDBRANCH  13  29
TORSDOF 4
