REMARK  Name = m131
REMARK  8 active torsions:
REMARK  status: ('A' for Active; 'I' for Inactive)
REMARK    1  A    between atoms: C_1  and  C_2
REMARK    2  A    between atoms: C_6  and  C_7
REMARK    3  A    between atoms: C_8  and  N_9
REMARK    4  A    between atoms: C_10  and  C_12
REMARK    5  A    between atoms: C_12  and  N_13
REMARK    6  A    between atoms: C_18  and  C_19
REMARK    7  A    between atoms: C_21  and  C_22
REMARK    8  A    between atoms: C_30  and  C_31
REMARK                            x       y       z     vdW  Elec       q    Type
REMARK                         _______ _______ _______ _____ _____    ______ ____
ROOT
ATOM      1  N   UNL     1      -2.295   1.569   0.807  0.00  0.00    -0.290 N 
ATOM      2  C   UNL     1      -1.317   0.729   1.199  0.00  0.00    +0.263 A 
ATOM      3  O   UNL     1      -1.542  -0.160   2.002  0.00  0.00    -0.267 OA
ATOM      4  C   UNL     1       0.035   0.910   0.625  0.00  0.00    +0.076 A 
ATOM      5  C   UNL     1       0.158   1.980  -0.288  0.00  0.00    +0.116 A 
ATOM      6  S   UNL     1       1.867   1.916  -0.764  0.00  0.00    -0.063 S 
ATOM      7  C   UNL     1       2.358   0.516   0.228  0.00  0.00    +0.082 A 
ATOM      8  N   UNL     1      -0.873   2.755  -0.602  0.00  0.00    -0.230 NA
ATOM      9  C   UNL     1       1.202   0.176   0.864  0.00  0.00    -0.017 A 
ATOM     10  C   UNL     1       1.180  -0.988   1.821  0.00  0.00    +0.046 C 
ATOM     11  C   UNL     1      -2.055   2.566  -0.081  0.00  0.00    +0.203 A 
ENDROOT
BRANCH   7  12
ATOM     12  C   UNL     1       3.681  -0.113   0.334  0.00  0.00    +0.266 A 
ATOM     13  O   UNL     1       4.009  -1.167   1.101  0.00  0.00    -0.332 OA
ATOM     14  N   UNL     1       5.181  -1.436   0.952  0.00  0.00    -0.056 NA
ATOM     15  C   UNL     1       5.736  -0.609   0.104  0.00  0.00    +0.202 A 
ATOM     16  N   UNL     1       4.782   0.252  -0.305  0.00  0.00    -0.187 NA
BRANCH  15  17
ATOM     17  C   UNL     1       7.157  -0.615  -0.329  0.00  0.00    +0.025 A 
ATOM     18  C   UNL     1       7.631   0.323  -1.249  0.00  0.00    +0.031 A 
ATOM     19  C   UNL     1       8.960   0.285  -1.620  0.00  0.00    +0.111 A 
ATOM     20  N   UNL     1       9.775  -0.627  -1.127  0.00  0.00    -0.263 NA
ATOM     21  C   UNL     1       9.366  -1.534  -0.260  0.00  0.00    +0.111 A 
ATOM     22  C   UNL     1       8.054  -1.563   0.168  0.00  0.00    +0.031 A 
ENDBRANCH  15  17
ENDBRANCH   7  12
BRANCH   1  23
ATOM     23  C   UNL     1      -3.643   1.408   1.356  0.00  0.00    +0.222 C 
BRANCH  23  26
ATOM     24  N   UNL     1      -5.714   0.180   0.786  0.00  0.00    -0.284 N 
ATOM     25  H   UNL     1      -6.105   0.521   1.605  0.00  0.00    +0.155 HD
ATOM     26  C   UNL     1      -4.437   0.478   0.475  0.00  0.00    +0.237 C 
ATOM     27  O   UNL     1      -3.926  -0.002  -0.515  0.00  0.00    -0.274 OA
BRANCH  24  30
ATOM     28  C   UNL     1      -7.920   1.372  -0.560  0.00  0.00    +0.045 C 
ATOM     29  C   UNL     1      -7.562  -0.080  -0.748  0.00  0.00    -0.029 A 
ATOM     30  C   UNL     1      -6.475  -0.621  -0.073  0.00  0.00    +0.039 A 
ATOM     31  C   UNL     1      -6.152  -1.960  -0.244  0.00  0.00    -0.029 A 
ATOM     32  C   UNL     1      -4.977  -2.553   0.491  0.00  0.00    +0.045 C 
ATOM     33  C   UNL     1      -6.905  -2.748  -1.093  0.00  0.00    +0.005 A 
ATOM     34  C   UNL     1      -7.983  -2.205  -1.768  0.00  0.00    +0.001 A 
ATOM     35  C   UNL     1      -8.310  -0.873  -1.595  0.00  0.00    +0.005 A 
ENDBRANCH  24  30
ENDBRANCH  23  26
ENDBRANCH   1  23
TORSDOF 5
