REMARK  Name = m133
REMARK  5 active torsions:
REMARK  status: ('A' for Active; 'I' for Inactive)
REMARK    1  A    between atoms: C_1  and  C_2
REMARK    2  A    between atoms: C_6  and  C_8
REMARK    3  A    between atoms: C_8  and  N_9
REMARK    4  A    between atoms: C_13  and  C_15
REMARK    5  A    between atoms: C_20  and  C_21
REMARK                            x       y       z     vdW  Elec       q    Type
REMARK                         _______ _______ _______ _____ _____    ______ ____
ROOT
ATOM      1  N   UNL     1       2.540   1.391  -0.410  0.00  0.00    -0.291 NA
ATOM      2  C   UNL     1       1.420   1.968  -1.163  0.00  0.00    +0.104 C 
ATOM      3  C   UNL     1       0.397   2.560  -0.189  0.00  0.00    +0.123 C 
ATOM      4  N   UNL     1      -0.018   1.503   0.748  0.00  0.00    -0.295 N 
ATOM      5  C   UNL     1      -1.321   1.267   0.998  0.00  0.00    +0.250 C 
ATOM      6  O   UNL     1      -1.646   0.317   1.685  0.00  0.00    -0.270 OA
ATOM      7  C   UNL     1       1.037   0.713   1.404  0.00  0.00    +0.123 C 
ATOM      8  C   UNL     1       2.021   0.235   0.331  0.00  0.00    +0.104 C 
ENDROOT
BRANCH   5   9
ATOM      9  C   UNL     1      -2.351   2.159   0.440  0.00  0.00    +0.082 A 
ATOM     10  C   UNL     1      -3.657   1.765  -0.097  0.00  0.00    +0.105 A 
ATOM     11  N   UNL     1      -4.260   2.866  -0.486  0.00  0.00    -0.173 NA
ATOM     12  N   UNL     1      -3.421   3.957  -0.242  0.00  0.00    -0.283 N 
ATOM     13  H   UNL     1      -3.634   4.881  -0.444  0.00  0.00    +0.188 HD
ATOM     14  C   UNL     1      -2.276   3.531   0.313  0.00  0.00    +0.118 A 
BRANCH  10  15
ATOM     15  C   UNL     1      -4.198   0.387  -0.179  0.00  0.00    +0.007 A 
ATOM     16  C   UNL     1      -5.536   0.142   0.111  0.00  0.00    +0.059 A 
ATOM     17  C   UNL     1      -6.053  -1.147   0.031  0.00  0.00    +0.163 A 
ATOM     18  O   UNL     1      -7.367  -1.297   0.340  0.00  0.00    -0.485 OA
ATOM     19  C   UNL     1      -7.828  -2.534  -0.194  0.00  0.00    +0.270 C 
ATOM     20  C   UNL     1      -6.865  -3.637   0.259  0.00  0.00    +0.270 C 
ATOM     21  O   UNL     1      -5.643  -3.482  -0.455  0.00  0.00    -0.485 OA
ATOM     22  C   UNL     1      -5.224  -2.195  -0.336  0.00  0.00    +0.162 A 
ATOM     23  C   UNL     1      -3.879  -1.947  -0.616  0.00  0.00    +0.050 A 
ATOM     24  C   UNL     1      -3.367  -0.672  -0.540  0.00  0.00    +0.014 A 
ENDBRANCH  10  15
ENDBRANCH   5   9
BRANCH   1  25
ATOM     25  C   UNL     1       3.489   0.866  -1.400  0.00  0.00    +0.181 C 
BRANCH  25  33
ATOM     26  C   UNL     1       8.968  -1.723   2.059  0.00  0.00    +0.089 C 
ATOM     27  C   UNL     1       8.201  -1.487   0.782  0.00  0.00    +0.136 A 
ATOM     28  O   UNL     1       8.557  -1.878  -0.450  0.00  0.00    -0.358 OA
ATOM     29  N   UNL     1       7.740  -1.548  -1.278  0.00  0.00    -0.063 NA
ATOM     30  C   UNL     1       6.746  -0.894  -0.735  0.00  0.00    +0.168 A 
ATOM     31  N   UNL     1       5.636  -0.362  -1.392  0.00  0.00    -0.267 N 
ATOM     32  H   UNL     1       5.546  -0.463  -2.352  0.00  0.00    +0.156 HD
ATOM     33  C   UNL     1       4.688   0.291  -0.691  0.00  0.00    +0.232 C 
ATOM     34  O   UNL     1       4.800   0.417   0.510  0.00  0.00    -0.274 OA
ATOM     35  C   UNL     1       7.024  -0.833   0.656  0.00  0.00    +0.091 A 
ENDBRANCH  25  33
ENDBRANCH   1  25
TORSDOF 4
