REMARK  Name = m134
REMARK  9 active torsions:
REMARK  status: ('A' for Active; 'I' for Inactive)
REMARK    1  A    between atoms: C_1  and  O_2
REMARK    2  A    between atoms: O_2  and  C_3
REMARK    3  A    between atoms: C_3  and  C_5
REMARK    4  A    between atoms: C_7  and  C_8
REMARK    5  A    between atoms: N_14  and  C_15
REMARK    6  A    between atoms: C_15  and  C_16
REMARK    7  A    between atoms: N_26  and  C_27
REMARK    8  A    between atoms: C_31  and  O_32
REMARK    9  A    between atoms: O_32  and  C_33
REMARK                            x       y       z     vdW  Elec       q    Type
REMARK                         _______ _______ _______ _____ _____    ______ ____
ROOT
ATOM      1  C   UNL     1       1.333   3.137  -0.080  0.00  0.00    +0.077 A 
ATOM      2  C   UNL     1       0.891   1.814   0.077  0.00  0.00    +0.096 A 
ATOM      3  C   UNL     1      -0.503   1.494   0.429  0.00  0.00    +0.267 A 
ATOM      4  N   UNL     1      -0.848   0.193   0.551  0.00  0.00    -0.251 N 
ATOM      5  C   UNL     1       0.052  -0.784   0.357  0.00  0.00    +0.338 A 
ATOM      6  N   UNL     1       1.335  -0.542   0.040  0.00  0.00    -0.246 N 
ATOM      7  O   UNL     1      -0.309  -1.938   0.478  0.00  0.00    -0.246 OA
ATOM      8  O   UNL     1      -1.321   2.376   0.605  0.00  0.00    -0.267 OA
ATOM      9  C   UNL     1       1.795   0.755  -0.115  0.00  0.00    +0.155 A 
ATOM     10  N   UNL     1       3.054   1.007  -0.432  0.00  0.00    -0.233 NA
ATOM     11  C   UNL     1       3.501   2.238  -0.582  0.00  0.00    +0.041 A 
ATOM     12  C   UNL     1       4.947   2.455  -0.943  0.00  0.00    +0.065 C 
ATOM     13  C   UNL     1       2.674   3.337  -0.415  0.00  0.00    +0.039 A 
ENDROOT
BRANCH   6  14
ATOM     14  C   UNL     1       2.215  -1.616  -0.147  0.00  0.00    +0.056 A 
ATOM     15  C   UNL     1       2.152  -2.720   0.690  0.00  0.00    +0.072 A 
ATOM     16  C   UNL     1       3.021  -3.783   0.498  0.00  0.00    +0.122 A 
ATOM     17  C   UNL     1       3.959  -3.735  -0.522  0.00  0.00    +0.046 A 
ATOM     18  C   UNL     1       4.025  -2.632  -1.352  0.00  0.00    +0.006 A 
ATOM     19  C   UNL     1       3.157  -1.573  -1.167  0.00  0.00    +0.026 A 
BRANCH  16  20
ATOM     20  O   UNL     1       2.957  -4.869   1.313  0.00  0.00    -0.495 OA
ATOM     21  C   UNL     1       3.970  -5.776   0.873  0.00  0.00    +0.277 C 
ENDBRANCH  16  20
ENDBRANCH   6  14
BRANCH   1  22
ATOM     22  C   UNL     1       0.411   4.281   0.109  0.00  0.00    +0.340 C 
ATOM     23  O   UNL     1      -0.645   4.315  -0.490  0.00  0.00    -0.245 OA
BRANCH  22  25
ATOM     24  C   UNL     1      -0.160   6.405   1.129  0.00  0.00    +0.280 C 
ATOM     25  O   UNL     1       0.744   5.284   0.944  0.00  0.00    -0.464 OA
ENDBRANCH  22  25
ENDBRANCH   1  22
BRANCH   4  26
ATOM     26  C   UNL     1      -2.227  -0.157   0.899  0.00  0.00    +0.225 C 
BRANCH  26  27
ATOM     27  C   UNL     1      -3.039  -0.317  -0.360  0.00  0.00    +0.236 C 
ATOM     28  N   UNL     1      -4.345  -0.640  -0.284  0.00  0.00    -0.300 N 
ATOM     29  C   UNL     1      -4.990  -0.847   1.020  0.00  0.00    +0.108 C 
ATOM     30  C   UNL     1      -5.675  -2.212   1.026  0.00  0.00    +0.019 C 
ATOM     31  C   UNL     1      -6.626  -2.309  -0.169  0.00  0.00    +0.003 C 
ATOM     32  C   UNL     1      -5.831  -2.171  -1.469  0.00  0.00    +0.019 C 
ATOM     33  C   UNL     1      -5.149  -0.799  -1.503  0.00  0.00    +0.108 C 
ATOM     34  O   UNL     1      -2.517  -0.154  -1.443  0.00  0.00    -0.274 OA
ENDBRANCH  26  27
ENDBRANCH   4  26
TORSDOF 6
