REMARK  Name = m135
REMARK  6 active torsions:
REMARK  status: ('A' for Active; 'I' for Inactive)
REMARK    1  A    between atoms: C_1  and  C_2
REMARK    2  A    between atoms: C_2  and  C_3
REMARK    3  A    between atoms: C_9  and  N_10
REMARK    4  A    between atoms: N_10  and  C_11
REMARK    5  A    between atoms: C_11  and  C_12
REMARK    6  A    between atoms: C_17  and  C_18
REMARK                            x       y       z     vdW  Elec       q    Type
REMARK                         _______ _______ _______ _____ _____    ______ ____
ROOT
ATOM      1  N   UNL     1       0.263   0.964  -0.003  0.00  0.00    -0.307 NA
ATOM      2  H   UNL     1       0.064   1.884   0.362  0.00  0.00    +0.123 HD
ENDROOT
BRANCH   1   6
ATOM      3  C   UNL     1      -4.649   0.369   0.171  0.00  0.00    +0.133 A 
ATOM      4  N   UNL     1      -3.358   0.125  -0.127  0.00  0.00    -0.313 N 
ATOM      5  C   UNL     1      -2.161   0.825   0.338  0.00  0.00    +0.143 C 
ATOM      6  C   UNL     1      -0.989   0.460  -0.582  0.00  0.00    +0.074 C 
ATOM      7  C   UNL     1      -0.907  -1.062  -0.730  0.00  0.00    +0.028 C 
ATOM      8  C   UNL     1      -2.108  -1.556  -1.550  0.00  0.00    +0.078 C 
ATOM      9  C   UNL     1      -3.356  -0.939  -0.970  0.00  0.00    +0.134 A 
ATOM     10  N   UNL     1      -4.593  -1.288  -1.158  0.00  0.00    -0.134 NA
ATOM     11  N   UNL     1      -5.366  -0.510  -0.480  0.00  0.00    -0.134 NA
BRANCH   3  13
ATOM     12  C   UNL     1      -5.261   0.924   2.509  0.00  0.00    +0.012 C 
ATOM     13  C   UNL     1      -5.168   1.455   1.077  0.00  0.00    +0.073 C 
ENDBRANCH   3  13
ENDBRANCH   1   6
BRANCH   1  14
ATOM     14  C   UNL     1       1.201   1.145  -1.118  0.00  0.00    +0.120 C 
BRANCH  14  15
ATOM     15  C   UNL     1       2.515   1.664  -0.590  0.00  0.00    +0.012 A 
ATOM     16  C   UNL     1       3.525   0.894   0.023  0.00  0.00    +0.103 A 
ATOM     17  N   UNL     1       4.513   1.705   0.342  0.00  0.00    -0.173 NA
ATOM     18  N   UNL     1       4.155   3.002  -0.049  0.00  0.00    -0.284 N 
ATOM     19  H   UNL     1       4.694   3.800   0.067  0.00  0.00    +0.188 HD
ATOM     20  C   UNL     1       2.930   2.948  -0.615  0.00  0.00    +0.110 A 
BRANCH  16  21
ATOM     21  C   UNL     1       3.486  -0.566   0.258  0.00  0.00    +0.040 A 
ATOM     22  S   UNL     1       2.095  -1.599   0.686  0.00  0.00    -0.095 S 
ATOM     23  C   UNL     1       2.955  -3.162   0.762  0.00  0.00    +0.046 A 
ATOM     24  C   UNL     1       4.229  -2.799   0.469  0.00  0.00    +0.008 A 
ATOM     25  C   UNL     1       4.508  -1.475   0.210  0.00  0.00    +0.018 A 
ENDBRANCH  16  21
ENDBRANCH  14  15
ENDBRANCH   1  14
TORSDOF 5
