REMARK  Name = m136
REMARK  8 active torsions:
REMARK  status: ('A' for Active; 'I' for Inactive)
REMARK    1  A    between atoms: C_1  and  C_2
REMARK    2  A    between atoms: C_6  and  C_7
REMARK    3  A    between atoms: C_8  and  S_9
REMARK    4  A    between atoms: S_9  and  N_12
REMARK    5  A    between atoms: C_16  and  C_17
REMARK    6  A    between atoms: C_18  and  C_19
REMARK    7  A    between atoms: N_21  and  C_22
REMARK    8  A    between atoms: N_21  and  C_23
REMARK                            x       y       z     vdW  Elec       q    Type
REMARK                         _______ _______ _______ _____ _____    ______ ____
ROOT
ATOM      1  N   UNL     1       1.492   1.375  -0.233  0.00  0.00    -0.171 NA
ATOM      2  C   UNL     1       0.234   0.715  -0.623  0.00  0.00    +0.146 C 
ATOM      3  C   UNL     1      -0.434   0.178   0.654  0.00  0.00    +0.166 C 
ATOM      4  O   UNL     1      -0.618   1.248   1.580  0.00  0.00    -0.369 OA
ATOM      5  C   UNL     1       0.671   1.650   2.042  0.00  0.00    +0.178 C 
ATOM      6  C   UNL     1       1.442   2.317   0.898  0.00  0.00    +0.137 C 
ENDROOT
BRANCH   3   7
ATOM      7  C   UNL     1      -1.772  -0.419   0.305  0.00  0.00    +0.011 A 
ATOM      8  C   UNL     1      -1.932  -1.815   0.270  0.00  0.00    +0.014 A 
ATOM      9  C   UNL     1      -3.230  -2.273  -0.065  0.00  0.00    +0.109 A 
ATOM     10  N   UNL     1      -3.535  -3.549  -0.134  0.00  0.00    -0.248 NA
ATOM     11  C   UNL     1      -2.635  -4.482   0.112  0.00  0.00    +0.112 A 
ATOM     12  C   UNL     1      -1.336  -4.133   0.453  0.00  0.00    +0.020 A 
ATOM     13  S   UNL     1      -4.140  -0.769  -0.318  0.00  0.00    -0.064 S 
ATOM     14  C   UNL     1      -0.969  -2.822   0.539  0.00  0.00    +0.012 A 
ATOM     15  C   UNL     1      -2.826   0.390   0.020  0.00  0.00    +0.082 A 
BRANCH  15  16
ATOM     16  C   UNL     1      -2.872   1.859  -0.006  0.00  0.00    +0.253 C 
ATOM     17  N   UNL     1      -4.050   2.494  -0.165  0.00  0.00    -0.303 N 
ATOM     18  C   UNL     1      -5.298   1.727  -0.193  0.00  0.00    +0.132 C 
ATOM     19  C   UNL     1      -4.083   3.951  -0.309  0.00  0.00    +0.132 C 
ATOM     20  O   UNL     1      -1.846   2.502   0.117  0.00  0.00    -0.269 OA
ENDBRANCH  15  16
ENDBRANCH   3   7
BRANCH   1  21
ATOM     21  S   UNL     1       2.906   1.075  -1.041  0.00  0.00    +0.064 S 
ATOM     22  O   UNL     1       2.524   0.592  -2.322  0.00  0.00    -0.153 OA
ATOM     23  O   UNL     1       3.735   2.204  -0.801  0.00  0.00    -0.153 OA
BRANCH  21  26
ATOM     24  C   UNL     1       5.095   1.085   1.462  0.00  0.00    +0.069 C 
ATOM     25  C   UNL     1       4.613  -0.189   0.817  0.00  0.00    +0.086 A 
ATOM     26  C   UNL     1       3.695  -0.279  -0.235  0.00  0.00    +0.148 A 
ATOM     27  C   UNL     1       3.527  -1.589  -0.530  0.00  0.00    +0.060 A 
ATOM     28  C   UNL     1       2.629  -2.150  -1.602  0.00  0.00    +0.067 C 
ATOM     29  N   UNL     1       4.304  -2.303   0.311  0.00  0.00    -0.280 N 
ATOM     30  H   UNL     1       4.383  -3.269   0.333  0.00  0.00    +0.189 HD
ATOM     31  N   UNL     1       4.976  -1.401   1.147  0.00  0.00    -0.177 NA
ENDBRANCH  21  26
ENDBRANCH   1  21
TORSDOF 4
