REMARK  Name = m137
REMARK  8 active torsions:
REMARK  status: ('A' for Active; 'I' for Inactive)
REMARK    1  A    between atoms: C_1  and  O_2
REMARK    2  A    between atoms: O_2  and  C_3
REMARK    3  A    between atoms: C_3  and  C_5
REMARK    4  A    between atoms: C_7  and  C_8
REMARK    5  A    between atoms: N_14  and  C_15
REMARK    6  A    between atoms: C_15  and  C_16
REMARK    7  A    between atoms: C_23  and  C_24
REMARK    8  A    between atoms: N_27  and  C_28
REMARK                            x       y       z     vdW  Elec       q    Type
REMARK                         _______ _______ _______ _____ _____    ______ ____
ROOT
ATOM      1  C   UNL     1       1.937   2.445  -0.233  0.00  0.00    +0.077 A 
ATOM      2  C   UNL     1       1.402   1.184   0.077  0.00  0.00    +0.096 A 
ATOM      3  C   UNL     1      -0.002   1.012   0.486  0.00  0.00    +0.267 A 
ATOM      4  N   UNL     1      -0.440  -0.238   0.757  0.00  0.00    -0.251 N 
ATOM      5  C   UNL     1       0.381  -1.296   0.656  0.00  0.00    +0.338 A 
ATOM      6  N   UNL     1       1.670  -1.189   0.293  0.00  0.00    -0.246 N 
ATOM      7  O   UNL     1      -0.062  -2.399   0.911  0.00  0.00    -0.246 OA
ATOM      8  O   UNL     1      -0.748   1.968   0.578  0.00  0.00    -0.267 OA
ATOM      9  C   UNL     1       2.220   0.045  -0.013  0.00  0.00    +0.155 A 
ATOM     10  N   UNL     1       3.486   0.164  -0.377  0.00  0.00    -0.233 NA
ATOM     11  C   UNL     1       4.019   1.333  -0.670  0.00  0.00    +0.041 A 
ATOM     12  C   UNL     1       5.468   1.398  -1.078  0.00  0.00    +0.065 C 
ATOM     13  C   UNL     1       3.280   2.504  -0.611  0.00  0.00    +0.039 A 
ENDROOT
BRANCH   6  14
ATOM     14  C   UNL     1       2.463  -2.340   0.211  0.00  0.00    +0.053 A 
ATOM     15  C   UNL     1       3.780  -2.311   0.650  0.00  0.00    +0.026 A 
ATOM     16  C   UNL     1       4.558  -3.449   0.573  0.00  0.00    +0.002 A 
ATOM     17  C   UNL     1       4.030  -4.615   0.048  0.00  0.00    +0.000 A 
ATOM     18  C   UNL     1       2.721  -4.646  -0.395  0.00  0.00    +0.002 A 
ATOM     19  C   UNL     1       1.936  -3.512  -0.315  0.00  0.00    +0.026 A 
ENDBRANCH   6  14
BRANCH   1  20
ATOM     20  C   UNL     1       1.107   3.670  -0.156  0.00  0.00    +0.340 C 
ATOM     21  O   UNL     1       0.042   3.719  -0.737  0.00  0.00    -0.245 OA
BRANCH  20  23
ATOM     22  C   UNL     1       0.722   5.929   0.633  0.00  0.00    +0.280 C 
ATOM     23  O   UNL     1       1.535   4.729   0.558  0.00  0.00    -0.464 OA
ENDBRANCH  20  23
ENDBRANCH   1  20
BRANCH   4  24
ATOM     24  C   UNL     1      -1.832  -0.441   1.166  0.00  0.00    +0.225 C 
BRANCH  24  25
ATOM     25  C   UNL     1      -2.685  -0.674  -0.055  0.00  0.00    +0.236 C 
ATOM     26  N   UNL     1      -4.009  -0.886   0.079  0.00  0.00    -0.297 N 
ATOM     27  C   UNL     1      -4.833  -1.231  -1.087  0.00  0.00    +0.073 C 
ATOM     28  C   UNL     1      -3.991  -1.131  -2.360  0.00  0.00    +0.028 C 
ATOM     29  C   UNL     1      -6.007  -0.257  -1.172  0.00  0.00    +0.022 C 
ATOM     30  C   UNL     1      -6.766  -0.258   0.158  0.00  0.00    +0.003 C 
ATOM     31  C   UNL     1      -5.833   0.203   1.280  0.00  0.00    +0.019 C 
ATOM     32  C   UNL     1      -4.656  -0.771   1.393  0.00  0.00    +0.108 C 
ATOM     33  O   UNL     1      -2.180  -0.670  -1.157  0.00  0.00    -0.274 OA
ENDBRANCH  24  25
ENDBRANCH   4  24
TORSDOF 5
