REMARK  Name = m138
REMARK  9 active torsions:
REMARK  status: ('A' for Active; 'I' for Inactive)
REMARK    1  A    between atoms: C_1  and  O_2
REMARK    2  A    between atoms: O_2  and  C_3
REMARK    3  A    between atoms: C_3  and  C_4
REMARK    4  A    between atoms: C_4  and  N_5
REMARK    5  A    between atoms: C_6  and  C_8
REMARK    6  A    between atoms: C_8  and  N_9
REMARK    7  A    between atoms: C_14  and  C_15
REMARK    8  A    between atoms: C_17  and  C_18
REMARK    9  A    between atoms: C_27  and  C_28
REMARK                            x       y       z     vdW  Elec       q    Type
REMARK                         _______ _______ _______ _____ _____    ______ ____
ROOT
ATOM      1  N   UNL     1       3.403   0.728  -0.913  0.00  0.00    -0.290 N 
ATOM      2  C   UNL     1       2.437  -0.211  -0.915  0.00  0.00    +0.263 A 
ATOM      3  O   UNL     1       2.704  -1.382  -1.122  0.00  0.00    -0.267 OA
ATOM      4  C   UNL     1       1.044   0.214  -0.654  0.00  0.00    +0.076 A 
ATOM      5  C   UNL     1       0.874   1.599  -0.435  0.00  0.00    +0.116 A 
ATOM      6  S   UNL     1      -0.874   1.758  -0.166  0.00  0.00    -0.063 S 
ATOM      7  C   UNL     1      -1.320   0.039  -0.345  0.00  0.00    +0.082 A 
ATOM      8  N   UNL     1       1.897   2.443  -0.460  0.00  0.00    -0.230 NA
ATOM      9  C   UNL     1      -0.121  -0.559  -0.598  0.00  0.00    -0.017 A 
ATOM     10  C   UNL     1      -0.051  -2.048  -0.818  0.00  0.00    +0.046 C 
ATOM     11  C   UNL     1       3.115   2.035  -0.689  0.00  0.00    +0.203 A 
ENDROOT
BRANCH   7  12
ATOM     12  C   UNL     1      -2.648  -0.579  -0.245  0.00  0.00    +0.266 A 
ATOM     13  O   UNL     1      -2.940  -1.882  -0.394  0.00  0.00    -0.332 OA
ATOM     14  N   UNL     1      -4.130  -2.058  -0.246  0.00  0.00    -0.056 NA
ATOM     15  C   UNL     1      -4.733  -0.922  -0.001  0.00  0.00    +0.204 A 
ATOM     16  N   UNL     1      -3.791   0.042   0.003  0.00  0.00    -0.187 NA
BRANCH  15  17
ATOM     17  C   UNL     1      -6.186  -0.731   0.230  0.00  0.00    +0.041 A 
ATOM     18  C   UNL     1      -6.693   0.542   0.485  0.00  0.00    +0.052 A 
ATOM     19 CL   UNL     1      -5.625   1.911   0.529  0.00  0.00    -0.083 Cl
ATOM     20  C   UNL     1      -8.048   0.715   0.693  0.00  0.00    +0.021 A 
ATOM     21  C   UNL     1      -8.899  -0.375   0.659  0.00  0.00    +0.001 A 
ATOM     22  C   UNL     1      -8.400  -1.641   0.412  0.00  0.00    +0.001 A 
ATOM     23  C   UNL     1      -7.050  -1.824   0.197  0.00  0.00    +0.013 A 
ENDBRANCH  15  17
ENDBRANCH   7  12
BRANCH   1  24
ATOM     24  C   UNL     1       4.790   0.331  -1.163  0.00  0.00    +0.221 C 
BRANCH  24  27
ATOM     25  N   UNL     1       6.751  -0.394   0.159  0.00  0.00    -0.312 N 
ATOM     26  H   UNL     1       7.247  -0.463  -0.672  0.00  0.00    +0.149 HD
ATOM     27  C   UNL     1       5.462  -0.001   0.144  0.00  0.00    +0.233 C 
ATOM     28  O   UNL     1       4.842   0.086   1.183  0.00  0.00    -0.274 OA
BRANCH  25  29
ATOM     29  C   UNL     1       7.404  -0.716   1.430  0.00  0.00    +0.132 C 
BRANCH  29  30
ATOM     30  C   UNL     1       8.853  -1.131   1.169  0.00  0.00    +0.178 C 
BRANCH  30  32
ATOM     31  C   UNL     1      10.918  -0.466   0.420  0.00  0.00    +0.194 C 
ATOM     32  O   UNL     1       9.579  -0.018   0.643  0.00  0.00    -0.381 OA
ENDBRANCH  30  32
ENDBRANCH  29  30
ENDBRANCH  25  29
ENDBRANCH  24  27
ENDBRANCH   1  24
TORSDOF 7
