REMARK  Name = m139
REMARK  8 active torsions:
REMARK  status: ('A' for Active; 'I' for Inactive)
REMARK    1  A    between atoms: C_1  and  C_2
REMARK    2  A    between atoms: C_2  and  S_3
REMARK    3  A    between atoms: S_3  and  C_4
REMARK    4  A    between atoms: C_7  and  C_8
REMARK    5  A    between atoms: N_10  and  C_11
REMARK    6  A    between atoms: N_15  and  S_16
REMARK    7  A    between atoms: S_16  and  C_19
REMARK    8  A    between atoms: N_29  and  C_30
REMARK                            x       y       z     vdW  Elec       q    Type
REMARK                         _______ _______ _______ _____ _____    ______ ____
ROOT
ATOM      1  C   UNL     1       1.420  -1.541  -0.690  0.00  0.00    +0.134 A 
ATOM      2  C   UNL     1       0.215  -1.808  -0.022  0.00  0.00    +0.020 A 
ATOM      3  C   UNL     1      -0.210  -1.341   1.349  0.00  0.00    +0.148 C 
ATOM      4  N   UNL     1      -1.647  -1.639   1.487  0.00  0.00    -0.172 NA
ATOM      5  C   UNL     1      -2.135  -2.951   1.035  0.00  0.00    +0.116 C 
ATOM      6  C   UNL     1      -1.934  -3.072  -0.479  0.00  0.00    +0.072 C 
ATOM      7  C   UNL     1      -0.552  -2.579  -0.830  0.00  0.00    +0.045 A 
ATOM      8  N   UNL     1       0.140  -2.810  -1.961  0.00  0.00    -0.270 N 
ATOM      9  C   UNL     1      -0.317  -3.610  -3.100  0.00  0.00    +0.172 C 
ATOM     10  N   UNL     1       1.374  -2.151  -1.860  0.00  0.00    -0.168 NA
ENDROOT
BRANCH   1  14
ATOM     11  C   UNL     1       4.450   0.316   0.036  0.00  0.00    +0.192 A 
ATOM     12  N   UNL     1       3.727  -0.464  -0.821  0.00  0.00    -0.304 N 
ATOM     13  C   UNL     1       4.131  -0.928  -2.151  0.00  0.00    +0.153 C 
ATOM     14  C   UNL     1       2.543  -0.729  -0.173  0.00  0.00    +0.185 A 
ATOM     15  N   UNL     1       2.595  -0.120   0.989  0.00  0.00    -0.127 NA
ATOM     16  N   UNL     1       3.717   0.494   1.112  0.00  0.00    -0.122 NA
BRANCH  11  17
ATOM     17  S   UNL     1       6.062   0.967  -0.250  0.00  0.00    -0.086 S 
BRANCH  17  19
ATOM     18  C   UNL     1       7.692   2.538   1.279  0.00  0.00    +0.016 C 
ATOM     19  C   UNL     1       6.316   1.869   1.298  0.00  0.00    +0.074 C 
ENDBRANCH  17  19
ENDBRANCH  11  17
ENDBRANCH   1  14
BRANCH   4  20
ATOM     20  S   UNL     1      -2.687  -0.524   2.133  0.00  0.00    +0.061 S 
ATOM     21  O   UNL     1      -1.883   0.343   2.920  0.00  0.00    -0.153 OA
ATOM     22  O   UNL     1      -3.803  -1.266   2.606  0.00  0.00    -0.153 OA
BRANCH  20  23
ATOM     23  C   UNL     1      -3.295   0.461   0.805  0.00  0.00    +0.107 A 
ATOM     24  C   UNL     1      -2.626   1.613   0.437  0.00  0.00    +0.051 A 
ATOM     25  C   UNL     1      -3.099   2.384  -0.609  0.00  0.00    +0.078 A 
ATOM     26 CL   UNL     1      -2.255   3.828  -1.075  0.00  0.00    -0.081 Cl
ATOM     27  C   UNL     1      -4.251   2.007  -1.281  0.00  0.00    +0.142 A 
ATOM     28  F   UNL     1      -4.718   2.762  -2.299  0.00  0.00    -0.204 F 
ATOM     29  C   UNL     1      -4.923   0.856  -0.907  0.00  0.00    +0.042 A 
ATOM     30  C   UNL     1      -4.444   0.084   0.135  0.00  0.00    +0.031 A 
ENDBRANCH  20  23
ENDBRANCH   4  20
TORSDOF 5
