REMARK  Name = m140
REMARK  7 active torsions:
REMARK  status: ('A' for Active; 'I' for Inactive)
REMARK    1  A    between atoms: C_1  and  C_2
REMARK    2  A    between atoms: C_3  and  C_4
REMARK    3  A    between atoms: C_6  and  C_7
REMARK    4  A    between atoms: N_19  and  C_20
REMARK    5  A    between atoms: C_20  and  C_21
REMARK    6  A    between atoms: N_23  and  C_24
REMARK    7  A    between atoms: C_24  and  C_25
REMARK                            x       y       z     vdW  Elec       q    Type
REMARK                         _______ _______ _______ _____ _____    ______ ____
ROOT
ATOM      1  C   UNL     1       0.950   1.370  -1.284  0.00  0.00    +0.046 C 
ATOM      2  C   UNL     1       1.088  -0.003  -0.678  0.00  0.00    -0.017 A 
ATOM      3  C   UNL     1      -0.032  -0.834  -0.562  0.00  0.00    +0.076 A 
ATOM      4  C   UNL     1       0.201  -2.102   0.015  0.00  0.00    +0.116 A 
ATOM      5  N   UNL     1      -0.774  -2.987   0.178  0.00  0.00    -0.230 NA
ATOM      6  C   UNL     1      -1.999  -2.731  -0.191  0.00  0.00    +0.203 A 
ATOM      7  N   UNL     1      -2.343  -1.550  -0.762  0.00  0.00    -0.290 N 
ATOM      8  S   UNL     1       1.939  -2.073   0.375  0.00  0.00    -0.063 S 
ATOM      9  C   UNL     1      -1.431  -0.582  -0.973  0.00  0.00    +0.263 A 
ATOM     10  O   UNL     1      -1.750   0.477  -1.486  0.00  0.00    -0.267 OA
ATOM     11  C   UNL     1       2.302  -0.436  -0.235  0.00  0.00    +0.082 A 
ENDROOT
BRANCH  11  12
ATOM     12  C   UNL     1       3.589   0.270  -0.256  0.00  0.00    +0.266 A 
ATOM     13  O   UNL     1       3.818   1.506  -0.732  0.00  0.00    -0.332 OA
ATOM     14  N   UNL     1       4.989   1.790  -0.594  0.00  0.00    -0.056 NA
ATOM     15  C   UNL     1       5.638   0.799  -0.038  0.00  0.00    +0.202 A 
ATOM     16  N   UNL     1       4.749  -0.190   0.187  0.00  0.00    -0.187 NA
BRANCH  15  17
ATOM     17  C   UNL     1       7.086   0.768   0.286  0.00  0.00    +0.022 A 
ATOM     18  C   UNL     1       7.645  -0.358   0.885  0.00  0.00    +0.012 A 
ATOM     19  C   UNL     1       8.993  -0.383   1.180  0.00  0.00    +0.001 A 
ATOM     20  C   UNL     1       9.787   0.712   0.890  0.00  0.00    +0.000 A 
ATOM     21  C   UNL     1       9.237   1.835   0.300  0.00  0.00    +0.001 A 
ATOM     22  C   UNL     1       7.891   1.868  -0.004  0.00  0.00    +0.012 A 
ENDBRANCH  15  17
ENDBRANCH  11  12
BRANCH   7  23
ATOM     23  C   UNL     1      -3.736  -1.322  -1.156  0.00  0.00    +0.221 C 
BRANCH  23  24
ATOM     24  C   UNL     1      -4.488  -0.703  -0.006  0.00  0.00    +0.233 C 
ATOM     25  N   UNL     1      -5.795  -0.403  -0.139  0.00  0.00    -0.311 N 
ATOM     26  H   UNL     1      -6.252  -0.585  -0.975  0.00  0.00    +0.149 HD
ATOM     27  O   UNL     1      -3.918  -0.475   1.040  0.00  0.00    -0.274 OA
BRANCH  25  28
ATOM     28  C   UNL     1      -6.527   0.199   0.979  0.00  0.00    +0.135 C 
BRANCH  28  29
ATOM     29  C   UNL     1      -7.981   0.437   0.567  0.00  0.00    +0.135 C 
ATOM     30  O   UNL     1      -8.033   1.362  -0.531  0.00  0.00    -0.375 OA
ATOM     31  C   UNL     1      -9.234   2.146  -0.365  0.00  0.00    +0.160 C 
ATOM     32  C   UNL     1      -9.289   2.406   1.162  0.00  0.00    +0.031 C 
ATOM     33  C   UNL     1      -8.759   1.070   1.737  0.00  0.00    +0.035 C 
ENDBRANCH  28  29
ENDBRANCH  25  28
ENDBRANCH  23  24
ENDBRANCH   7  23
TORSDOF 6
