REMARK  Name = m141
REMARK  5 active torsions:
REMARK  status: ('A' for Active; 'I' for Inactive)
REMARK    1  A    between atoms: C_1  and  C_2
REMARK    2  A    between atoms: C_8  and  N_9
REMARK    3  A    between atoms: N_9  and  C_10
REMARK    4  A    between atoms: C_10  and  C_11
REMARK    5  A    between atoms: C_16  and  C_17
REMARK                            x       y       z     vdW  Elec       q    Type
REMARK                         _______ _______ _______ _____ _____    ______ ____
ROOT
ATOM      1  N   UNL     1      -0.059   0.995  -0.165  0.00  0.00    -0.307 NA
ATOM      2  H   UNL     1       0.096   1.898  -0.588  0.00  0.00    +0.123 HD
ENDROOT
BRANCH   1   7
ATOM      3  C   UNL     1       5.288   1.542  -1.587  0.00  0.00    +0.088 C 
ATOM      4  C   UNL     1       4.848   0.495  -0.596  0.00  0.00    +0.130 A 
ATOM      5  N   UNL     1       3.583   0.240  -0.210  0.00  0.00    -0.313 N 
ATOM      6  C   UNL     1       2.344   0.889  -0.639  0.00  0.00    +0.143 C 
ATOM      7  C   UNL     1       1.237   0.550   0.366  0.00  0.00    +0.074 C 
ATOM      8  C   UNL     1       1.200  -0.964   0.597  0.00  0.00    +0.028 C 
ATOM      9  C   UNL     1       2.458  -1.387   1.370  0.00  0.00    +0.078 C 
ATOM     10  C   UNL     1       3.655  -0.777   0.685  0.00  0.00    +0.134 A 
ATOM     11  N   UNL     1       4.909  -1.088   0.818  0.00  0.00    -0.134 NA
ATOM     12  N   UNL     1       5.622  -0.333   0.056  0.00  0.00    -0.135 NA
ENDBRANCH   1   7
BRANCH   1  13
ATOM     13  C   UNL     1      -0.935   1.216   0.993  0.00  0.00    +0.120 C 
BRANCH  13  14
ATOM     14  C   UNL     1      -2.289   1.678   0.518  0.00  0.00    +0.012 A 
ATOM     15  C   UNL     1      -3.314   0.855   0.007  0.00  0.00    +0.103 A 
ATOM     16  N   UNL     1      -4.339   1.627  -0.295  0.00  0.00    -0.173 NA
ATOM     17  N   UNL     1      -3.990   2.950   0.005  0.00  0.00    -0.284 N 
ATOM     18  H   UNL     1      -4.554   3.729  -0.121  0.00  0.00    +0.188 HD
ATOM     19  C   UNL     1      -2.733   2.953   0.500  0.00  0.00    +0.110 A 
BRANCH  15  20
ATOM     20  C   UNL     1      -3.253  -0.614  -0.153  0.00  0.00    +0.040 A 
ATOM     21  S   UNL     1      -1.865  -1.640  -0.608  0.00  0.00    -0.095 S 
ATOM     22  C   UNL     1      -2.690  -3.222  -0.551  0.00  0.00    +0.046 A 
ATOM     23  C   UNL     1      -3.954  -2.871  -0.202  0.00  0.00    +0.008 A 
ATOM     24  C   UNL     1      -4.249  -1.540   0.003  0.00  0.00    +0.018 A 
ENDBRANCH  15  20
ENDBRANCH  13  14
ENDBRANCH   1  13
TORSDOF 4
