REMARK  Name = m142
REMARK  7 active torsions:
REMARK  status: ('A' for Active; 'I' for Inactive)
REMARK    1  A    between atoms: C_1  and  C_2
REMARK    2  A    between atoms: C_2  and  C_3
REMARK    3  A    between atoms: C_2  and  C_4
REMARK    4  A    between atoms: C_4  and  N_5
REMARK    5  A    between atoms: N_8  and  C_9
REMARK    6  A    between atoms: C_17  and  N_18
REMARK    7  A    between atoms: C_19  and  C_21
REMARK                            x       y       z     vdW  Elec       q    Type
REMARK                         _______ _______ _______ _____ _____    ______ ____
ROOT
ATOM      1  N   UNL     1       4.301   0.677   0.426  0.00  0.00    -0.279 N 
ATOM      2  C   UNL     1       2.954   0.401   0.449  0.00  0.00    +0.132 A 
ATOM      3  C   UNL     1       2.538  -0.911   0.207  0.00  0.00    +0.124 A 
ATOM      4  C   UNL     1       1.082  -0.913   0.284  0.00  0.00    +0.171 A 
ATOM      5  C   UNL     1       0.708   0.396   0.562  0.00  0.00    +0.087 A 
ATOM      6  C   UNL     1      -0.655   0.710   0.697  0.00  0.00    +0.060 A 
ATOM      7  C   UNL     1      -1.589  -0.294   0.549  0.00  0.00    +0.121 A 
ATOM      8  C   UNL     1      -1.157  -1.606   0.268  0.00  0.00    +0.359 A 
ATOM      9  O   UNL     1      -1.976  -2.499   0.136  0.00  0.00    -0.243 OA
ATOM     10  O   UNL     1       0.153  -1.879   0.144  0.00  0.00    -0.418 OA
ATOM     11  C   UNL     1       3.550  -1.934  -0.049  0.00  0.00    +0.269 A 
ATOM     12  O   UNL     1       3.230  -3.089  -0.259  0.00  0.00    -0.267 OA
ATOM     13  N   UNL     1       4.851  -1.565  -0.045  0.00  0.00    -0.263 N 
ATOM     14  C   UNL     1       5.888  -2.568  -0.297  0.00  0.00    +0.157 C 
ATOM     15  N   UNL     1       1.855   1.168   0.652  0.00  0.00    -0.338 N 
ATOM     16  H   UNL     1       1.870   2.120   0.838  0.00  0.00    +0.167 HD
ATOM     17  C   UNL     1       5.202  -0.290   0.188  0.00  0.00    +0.333 A 
ATOM     18  O   UNL     1       6.383  -0.000   0.183  0.00  0.00    -0.246 OA
ENDROOT
BRANCH   7  19
ATOM     19  N   UNL     1      -2.957  -0.013   0.679  0.00  0.00    -0.276 N 
ATOM     20  H   UNL     1      -3.298   0.366   1.504  0.00  0.00    +0.155 HD
ATOM     21  C   UNL     1      -3.797  -0.268  -0.344  0.00  0.00    +0.248 C 
ATOM     22  O   UNL     1      -3.383  -0.809  -1.351  0.00  0.00    -0.270 OA
BRANCH  21  23
ATOM     23  C   UNL     1      -5.221   0.110  -0.241  0.00  0.00    +0.037 A 
ATOM     24  C   UNL     1      -5.701   0.727   0.916  0.00  0.00    +0.016 A 
ATOM     25  C   UNL     1      -7.030   1.083   1.004  0.00  0.00    +0.039 A 
ATOM     26  C   UNL     1      -7.892   0.819  -0.049  0.00  0.00    +0.123 A 
ATOM     27  F   UNL     1      -9.195   1.165   0.045  0.00  0.00    -0.205 F 
ATOM     28  C   UNL     1      -7.422   0.202  -1.198  0.00  0.00    +0.039 A 
ATOM     29  C   UNL     1      -6.094  -0.153  -1.300  0.00  0.00    +0.016 A 
ENDBRANCH  21  23
ENDBRANCH   7  19
BRANCH   1  30
ATOM     30  C   UNL     1       4.761   2.046   0.672  0.00  0.00    +0.131 C 
BRANCH  30  32
ATOM     31  C   UNL     1       5.206   4.265  -0.388  0.00  0.00    +0.009 C 
ATOM     32  C   UNL     1       4.847   2.802  -0.656  0.00  0.00    +0.003 C 
ATOM     33  C   UNL     1       5.924   2.165  -1.536  0.00  0.00    +0.009 C 
ENDBRANCH  30  32
ENDBRANCH   1  30
TORSDOF 4
