REMARK  Name = m143
REMARK  7 active torsions:
REMARK  status: ('A' for Active; 'I' for Inactive)
REMARK    1  A    between atoms: C_1  and  O_2
REMARK    2  A    between atoms: O_2  and  C_3
REMARK    3  A    between atoms: C_6  and  O_7
REMARK    4  A    between atoms: O_7  and  C_8
REMARK    5  A    between atoms: C_9  and  N_10
REMARK    6  A    between atoms: C_11  and  C_13
REMARK    7  A    between atoms: C_13  and  N_14
REMARK                            x       y       z     vdW  Elec       q    Type
REMARK                         _______ _______ _______ _____ _____    ______ ____
ROOT
ATOM      1  N   UNL     1      -0.599   0.704  -1.324  0.00  0.00    -0.203 N 
ATOM      2  C   UNL     1      -1.252   1.711  -0.707  0.00  0.00    +0.352 A 
ATOM      3  O   UNL     1      -0.858   2.858  -0.592  0.00  0.00    -0.244 OA
ATOM      4  N   UNL     1      -2.416   1.222  -0.243  0.00  0.00    -0.239 N 
ATOM      5  C   UNL     1      -2.484  -0.123  -0.573  0.00  0.00    +0.203 A 
ATOM      6  C   UNL     1      -3.670  -0.894  -0.168  0.00  0.00    +0.167 A 
ATOM      7  N   UNL     1      -4.638  -0.307   0.493  0.00  0.00    -0.227 NA
ATOM      8  C   UNL     1      -4.580   1.012   0.820  0.00  0.00    +0.090 A 
ATOM      9  C   UNL     1      -5.636   1.600   1.527  0.00  0.00    +0.030 A 
ATOM     10  C   UNL     1      -5.582   2.935   1.860  0.00  0.00    +0.002 A 
ATOM     11  C   UNL     1      -4.486   3.704   1.501  0.00  0.00    +0.002 A 
ATOM     12  C   UNL     1      -3.436   3.139   0.804  0.00  0.00    +0.028 A 
ATOM     13  N   UNL     1      -3.762  -2.235  -0.484  0.00  0.00    -0.312 N 
ATOM     14  C   UNL     1      -2.754  -3.015  -1.224  0.00  0.00    +0.106 C 
ATOM     15  C   UNL     1      -2.991  -4.483  -0.785  0.00  0.00    +0.020 C 
ATOM     16  C   UNL     1      -4.538  -4.526  -0.673  0.00  0.00    +0.020 C 
ATOM     17  C   UNL     1      -4.886  -3.119  -0.142  0.00  0.00    +0.106 C 
ATOM     18  C   UNL     1      -3.474   1.796   0.460  0.00  0.00    +0.078 A 
ATOM     19  N   UNL     1      -1.398  -0.444  -1.222  0.00  0.00    -0.145 NA
ENDROOT
BRANCH   1  20
ATOM     20  C   UNL     1       0.710   0.793  -1.977  0.00  0.00    +0.244 C 
BRANCH  20  23
ATOM     21  N   UNL     1       3.086   0.512  -1.351  0.00  0.00    -0.281 N 
ATOM     22  H   UNL     1       3.326   0.805  -2.244  0.00  0.00    +0.155 HD
ATOM     23  C   UNL     1       1.793   0.490  -0.974  0.00  0.00    +0.239 C 
ATOM     24  O   UNL     1       1.500   0.226   0.174  0.00  0.00    -0.273 OA
BRANCH  21  27
ATOM     25  C   UNL     1       4.770  -1.147   1.472  0.00  0.00    +0.122 A 
ATOM     26  C   UNL     1       3.781  -0.758   0.583  0.00  0.00    +0.072 A 
ATOM     27  C   UNL     1       4.085   0.113  -0.453  0.00  0.00    +0.079 A 
ATOM     28  C   UNL     1       5.387   0.585  -0.603  0.00  0.00    +0.141 A 
ATOM     29  C   UNL     1       6.373   0.189   0.286  0.00  0.00    +0.051 A 
ATOM     30  C   UNL     1       6.066  -0.675   1.320  0.00  0.00    +0.049 A 
BRANCH  25  32
ATOM     31  C   UNL     1       5.682  -2.211   3.219  0.00  0.00    +0.277 C 
ATOM     32  O   UNL     1       4.471  -1.997   2.491  0.00  0.00    -0.495 OA
ENDBRANCH  25  32
BRANCH  28  33
ATOM     33  O   UNL     1       5.690   1.435  -1.621  0.00  0.00    -0.493 OA
ATOM     34  C   UNL     1       7.083   1.734  -1.509  0.00  0.00    +0.277 C 
ENDBRANCH  28  33
ENDBRANCH  21  27
ENDBRANCH  20  23
ENDBRANCH   1  20
TORSDOF 5
