REMARK  Name = m144
REMARK  6 active torsions:
REMARK  status: ('A' for Active; 'I' for Inactive)
REMARK    1  A    between atoms: C_1  and  C_2
REMARK    2  A    between atoms: C_2  and  C_3
REMARK    3  A    between atoms: C_9  and  N_10
REMARK    4  A    between atoms: N_10  and  C_11
REMARK    5  A    between atoms: C_11  and  C_12
REMARK    6  A    between atoms: C_17  and  C_18
REMARK                            x       y       z     vdW  Elec       q    Type
REMARK                         _______ _______ _______ _____ _____    ______ ____
ROOT
ATOM      1  N   UNL     1      -0.439   1.043   0.019  0.00  0.00    -0.307 NA
ATOM      2  H   UNL     1      -0.253   1.925  -0.434  0.00  0.00    +0.123 HD
ENDROOT
BRANCH   1   8
ATOM      3  C   UNL     1       5.006  -0.219  -0.283  0.00  0.00    +0.118 C 
ATOM      4  N   UNL     1       4.332   0.887  -0.172  0.00  0.00    -0.180 NA
ATOM      5  N   UNL     1       3.235   0.647   0.600  0.00  0.00    -0.338 NA
ATOM      6  H   UNL     1       3.288   1.216   1.432  0.00  0.00    +0.164 HD
ATOM      7  C   UNL     1       2.007   0.990  -0.129  0.00  0.00    +0.136 C 
ATOM      8  C   UNL     1       0.786   0.672   0.740  0.00  0.00    +0.074 C 
ATOM      9  C   UNL     1       0.764  -0.830   1.048  0.00  0.00    +0.028 C 
ATOM     10  C   UNL     1       2.096  -1.202   1.719  0.00  0.00    +0.071 C 
ATOM     11  C   UNL     1       3.206  -0.553   0.924  0.00  0.00    +0.076 C 
ATOM     12  N   UNL     1       4.321  -1.168   0.432  0.00  0.00    -0.292 N 
ATOM     13  H   UNL     1       4.578  -2.094   0.563  0.00  0.00    +0.154 HD
BRANCH   3  15
ATOM     14  C   UNL     1       6.708   0.902  -1.696  0.00  0.00    +0.012 C 
ATOM     15  C   UNL     1       6.292  -0.418  -1.044  0.00  0.00    +0.070 C 
ENDBRANCH   3  15
ENDBRANCH   1   8
BRANCH   1  16
ATOM     16  C   UNL     1      -1.466   1.299   1.037  0.00  0.00    +0.120 C 
BRANCH  16  17
ATOM     17  C   UNL     1      -2.757   1.687   0.362  0.00  0.00    +0.012 A 
ATOM     18  C   UNL     1      -3.684   0.803  -0.228  0.00  0.00    +0.103 A 
ATOM     19  N   UNL     1      -4.679   1.522  -0.707  0.00  0.00    -0.173 NA
ATOM     20  N   UNL     1      -4.408   2.871  -0.443  0.00  0.00    -0.284 N 
ATOM     21  H   UNL     1      -4.970   3.622  -0.688  0.00  0.00    +0.188 HD
ATOM     22  C   UNL     1      -3.228   2.943   0.210  0.00  0.00    +0.110 A 
BRANCH  18  23
ATOM     23  C   UNL     1      -3.564  -0.670  -0.290  0.00  0.00    +0.040 A 
ATOM     24  S   UNL     1      -2.101  -1.672  -0.497  0.00  0.00    -0.095 S 
ATOM     25  C   UNL     1      -2.885  -3.275  -0.454  0.00  0.00    +0.046 A 
ATOM     26  C   UNL     1      -4.193  -2.948  -0.294  0.00  0.00    +0.008 A 
ATOM     27  C   UNL     1      -4.547  -1.619  -0.209  0.00  0.00    +0.018 A 
ENDBRANCH  18  23
ENDBRANCH  16  17
ENDBRANCH   1  16
TORSDOF 5
