REMARK  Name = m145
REMARK  12 active torsions:
REMARK  status: ('A' for Active; 'I' for Inactive)
REMARK    1  A    between atoms: C_1  and  C_2
REMARK    2  A    between atoms: C_2  and  C_3
REMARK    3  A    between atoms: C_3  and  C_4
REMARK    4  A    between atoms: C_4  and  N_5
REMARK    5  A    between atoms: C_6  and  N_7
REMARK    6  A    between atoms: C_8  and  N_9
REMARK    7  A    between atoms: N_9  and  C_10
REMARK    8  A    between atoms: C_10  and  C_11
REMARK    9  A    between atoms: C_12  and  C_14
REMARK   10  A    between atoms: N_16  and  C_17
REMARK   11  A    between atoms: C_17  and  C_18
REMARK   12  A    between atoms: C_25  and  C_26
REMARK                            x       y       z     vdW  Elec       q    Type
REMARK                         _______ _______ _______ _____ _____    ______ ____
ROOT
ATOM      1  N   UNL     1       0.941  -1.961  -1.398  0.00  0.00    -0.260 N 
ATOM      2  C   UNL     1      -0.291  -2.029  -0.855  0.00  0.00    +0.255 C 
ATOM      3  O   UNL     1      -0.920  -3.069  -0.901  0.00  0.00    -0.270 OA
ENDROOT
BRANCH   1  11
ATOM      4  N   UNL     1       3.035   0.637   0.139  0.00  0.00    -0.280 N 
ATOM      5  C   UNL     1       3.234   1.453  -0.912  0.00  0.00    +0.331 A 
ATOM      6  O   UNL     1       3.909   2.455  -0.771  0.00  0.00    -0.246 OA
ATOM      7  N   UNL     1       2.710   1.174  -2.119  0.00  0.00    -0.273 N 
ATOM      8  H   UNL     1       2.872   1.776  -2.863  0.00  0.00    +0.173 HD
ATOM      9  C   UNL     1       1.959   0.071  -2.306  0.00  0.00    +0.277 A 
ATOM     10  O   UNL     1       1.484  -0.169  -3.403  0.00  0.00    -0.266 OA
ATOM     11  C   UNL     1       1.725  -0.801  -1.226  0.00  0.00    +0.140 A 
ATOM     12  C   UNL     1       2.276  -0.501   0.003  0.00  0.00    +0.127 A 
BRANCH  12  13
ATOM     13  N   UNL     1       2.067  -1.331   1.079  0.00  0.00    -0.343 N 
ATOM     14  H   UNL     1       1.471  -2.091   0.997  0.00  0.00    +0.144 HD
ATOM     15  H   UNL     1       2.516  -1.156   1.921  0.00  0.00    +0.144 HD
ENDBRANCH  12  13
BRANCH   4  16
ATOM     16  C   UNL     1       3.626   0.968   1.439  0.00  0.00    +0.128 C 
BRANCH  16  17
ATOM     17  C   UNL     1       5.015   0.335   1.543  0.00  0.00    +0.021 C 
BRANCH  17  19
ATOM     18  C   UNL     1       7.021   0.047   3.005  0.00  0.00    +0.004 C 
ATOM     19  C   UNL     1       5.632   0.680   2.900  0.00  0.00    -0.002 C 
ENDBRANCH  17  19
ENDBRANCH  16  17
ENDBRANCH   4  16
ENDBRANCH   1  11
BRANCH   2  20
ATOM     20  C   UNL     1      -0.875  -0.843  -0.205  0.00  0.00    +0.083 A 
ATOM     21  C   UNL     1      -2.140  -0.779   0.532  0.00  0.00    +0.106 A 
ATOM     22  N   UNL     1      -2.281   0.459   0.948  0.00  0.00    -0.170 NA
ATOM     23  N   UNL     1      -1.186   1.213   0.516  0.00  0.00    -0.266 N 
ATOM     24  C   UNL     1      -0.344   0.430  -0.176  0.00  0.00    +0.122 A 
BRANCH  21  25
ATOM     25  C   UNL     1      -3.078  -1.903   0.774  0.00  0.00    +0.021 A 
ATOM     26  C   UNL     1      -3.355  -2.823  -0.235  0.00  0.00    +0.120 A 
ATOM     27  N   UNL     1      -4.183  -3.825  -0.020  0.00  0.00    -0.263 NA
ATOM     28  C   UNL     1      -4.788  -3.991   1.141  0.00  0.00    +0.111 A 
ATOM     29  C   UNL     1      -4.570  -3.116   2.190  0.00  0.00    +0.020 A 
ATOM     30  C   UNL     1      -3.704  -2.051   2.015  0.00  0.00    +0.013 A 
ENDBRANCH  21  25
BRANCH  23  31
ATOM     31  C   UNL     1      -0.988   2.640   0.778  0.00  0.00    +0.178 C 
BRANCH  31  32
ATOM     32  C   UNL     1      -2.190   3.411   0.295  0.00  0.00    -0.026 A 
ATOM     33  C   UNL     1      -2.227   3.896  -0.999  0.00  0.00    +0.005 A 
ATOM     34  C   UNL     1      -3.331   4.598  -1.442  0.00  0.00    +0.000 A 
ATOM     35  C   UNL     1      -4.395   4.825  -0.589  0.00  0.00    +0.000 A 
ATOM     36  C   UNL     1      -4.356   4.345   0.707  0.00  0.00    +0.000 A 
ATOM     37  C   UNL     1      -3.253   3.638   1.149  0.00  0.00    +0.005 A 
ENDBRANCH  31  32
ENDBRANCH  23  31
ENDBRANCH   2  20
BRANCH   1  38
ATOM     38  C   UNL     1       1.465  -3.093  -2.167  0.00  0.00    +0.111 C 
ATOM     39  C   UNL     1       2.103  -4.105  -1.213  0.00  0.00    +0.025 C 
ENDBRANCH   1  38
TORSDOF 10
