REMARK  Name = m146
REMARK  7 active torsions:
REMARK  status: ('A' for Active; 'I' for Inactive)
REMARK    1  A    between atoms: C_1  and  O_2
REMARK    2  A    between atoms: O_2  and  C_3
REMARK    3  A    between atoms: C_6  and  C_7
REMARK    4  A    between atoms: C_7  and  N_8
REMARK    5  A    between atoms: N_8  and  C_9
REMARK    6  A    between atoms: C_10  and  C_12
REMARK    7  A    between atoms: C_17  and  C_18
REMARK                            x       y       z     vdW  Elec       q    Type
REMARK                         _______ _______ _______ _____ _____    ______ ____
ROOT
ATOM      1  C   UNL     1      -0.383  -1.646  -0.300  0.00  0.00    +0.082 A 
ATOM      2  C   UNL     1      -1.827  -1.762  -0.526  0.00  0.00    +0.105 A 
ATOM      3  N   UNL     1      -2.023  -2.883  -1.182  0.00  0.00    -0.173 NA
ATOM      4  N   UNL     1      -0.793  -3.512  -1.391  0.00  0.00    -0.283 N 
ATOM      5  H   UNL     1      -0.668  -4.358  -1.849  0.00  0.00    +0.188 HD
ATOM      6  C   UNL     1       0.190  -2.769  -0.861  0.00  0.00    +0.118 A 
ENDROOT
BRANCH   2   7
ATOM      7  C   UNL     1      -2.867  -0.794  -0.102  0.00  0.00    +0.007 A 
ATOM      8  C   UNL     1      -3.927  -0.492  -0.949  0.00  0.00    +0.059 A 
ATOM      9  C   UNL     1      -4.911   0.411  -0.556  0.00  0.00    +0.163 A 
ATOM     10  O   UNL     1      -5.905   0.655  -1.449  0.00  0.00    -0.485 OA
ATOM     11  C   UNL     1      -7.012   1.228  -0.761  0.00  0.00    +0.270 C 
ATOM     12  C   UNL     1      -6.498   2.412   0.067  0.00  0.00    +0.270 C 
ATOM     13  O   UNL     1      -5.747   1.897   1.161  0.00  0.00    -0.485 OA
ATOM     14  C   UNL     1      -4.827   1.017   0.688  0.00  0.00    +0.162 A 
ATOM     15  C   UNL     1      -3.756   0.718   1.530  0.00  0.00    +0.050 A 
ATOM     16  C   UNL     1      -2.784  -0.176   1.145  0.00  0.00    +0.014 A 
ENDBRANCH   2   7
BRANCH   1  18
ATOM     17  N   UNL     1       1.296  -0.830   1.277  0.00  0.00    -0.296 N 
ATOM     18  C   UNL     1       0.317  -0.551   0.394  0.00  0.00    +0.250 C 
ATOM     19  O   UNL     1       0.010   0.604   0.171  0.00  0.00    -0.270 OA
ATOM     20  C   UNL     1       1.582  -2.221   1.639  0.00  0.00    +0.132 C 
BRANCH  17  21
ATOM     21  C   UNL     1       2.075   0.257   1.875  0.00  0.00    +0.143 C 
BRANCH  21  26
ATOM     22  C   UNL     1       5.487   1.075  -0.568  0.00  0.00    +0.155 A 
ATOM     23  C   UNL     1       5.571   0.136   0.452  0.00  0.00    +0.165 A 
ATOM     24  F   UNL     1       6.732  -0.517   0.676  0.00  0.00    -0.202 F 
ATOM     25  C   UNL     1       4.466  -0.123   1.244  0.00  0.00    +0.047 A 
ATOM     26  C   UNL     1       3.278   0.545   1.014  0.00  0.00    -0.027 A 
ATOM     27  C   UNL     1       3.191   1.476  -0.004  0.00  0.00    +0.009 A 
ATOM     28  C   UNL     1       4.293   1.743  -0.795  0.00  0.00    +0.049 A 
BRANCH  22  30
ATOM     29  C   UNL     1       6.172   2.328  -2.293  0.00  0.00    +0.277 C 
ATOM     30  O   UNL     1       6.571   1.336  -1.345  0.00  0.00    -0.492 OA
ENDBRANCH  22  30
ENDBRANCH  21  26
ENDBRANCH  17  21
ENDBRANCH   1  18
TORSDOF 5
