REMARK  Name = m147
REMARK  7 active torsions:
REMARK  status: ('A' for Active; 'I' for Inactive)
REMARK    1  A    between atoms: C_1  and  O_2
REMARK    2  A    between atoms: O_2  and  C_3
REMARK    3  A    between atoms: C_7  and  C_8
REMARK    4  A    between atoms: C_15  and  C_16
REMARK    5  A    between atoms: C_25  and  C_26
REMARK    6  A    between atoms: C_29  and  O_30
REMARK    7  A    between atoms: O_30  and  C_31
REMARK                            x       y       z     vdW  Elec       q    Type
REMARK                         _______ _______ _______ _____ _____    ______ ____
ROOT
ATOM      1  C   UNL     1       1.161  -0.359   0.338  0.00  0.00    +0.067 C 
ATOM      2  C   UNL     1      -0.032   0.434  -0.132  0.00  0.00    +0.023 A 
ATOM      3  C   UNL     1      -0.081   1.657  -0.785  0.00  0.00    +0.066 A 
ATOM      4  N   UNL     1      -1.340   1.956  -1.006  0.00  0.00    -0.168 NA
ATOM      5  N   UNL     1      -2.140   0.922  -0.494  0.00  0.00    -0.198 N 
ATOM      6  C   UNL     1      -3.537   0.860  -0.537  0.00  0.00    +0.176 A 
ATOM      7  N   UNL     1      -4.155  -0.175  -0.022  0.00  0.00    -0.144 NA
ATOM      8  N   UNL     1      -5.549  -0.254  -0.049  0.00  0.00    -0.195 N 
ATOM      9  C   UNL     1      -6.284   0.752  -0.627  0.00  0.00    +0.178 A 
ATOM     10  N   UNL     1      -7.557   0.411  -0.513  0.00  0.00    -0.128 NA
ATOM     11  N   UNL     1      -7.640  -0.724   0.090  0.00  0.00    -0.132 NA
ATOM     12  C   UNL     1      -5.618   1.860  -1.184  0.00  0.00    +0.054 A 
ATOM     13  C   UNL     1      -6.444  -1.165   0.391  0.00  0.00    +0.152 A 
ATOM     14  C   UNL     1      -6.124  -2.456   1.098  0.00  0.00    +0.090 C 
ATOM     15  C   UNL     1      -4.260   1.908  -1.137  0.00  0.00    +0.054 A 
ATOM     16  C   UNL     1       1.108   2.497  -1.175  0.00  0.00    +0.068 C 
ATOM     17  C   UNL     1      -1.318  -0.003   0.045  0.00  0.00    +0.134 A 
ATOM     18  N   UNL     1      -1.607  -1.206   0.687  0.00  0.00    -0.270 N 
ATOM     19  H   UNL     1      -2.504  -1.574   0.678  0.00  0.00    +0.156 HD
ATOM     20  C   UNL     1      -0.601  -1.844   1.322  0.00  0.00    +0.219 C 
ATOM     21  O   UNL     1      -0.782  -2.975   1.723  0.00  0.00    -0.275 OA
ATOM     22  C   UNL     1       0.737  -1.197   1.549  0.00  0.00    +0.109 C 
ENDROOT
BRANCH   1  25
ATOM     23  C   UNL     1       4.488   1.445   0.401  0.00  0.00    +0.162 A 
ATOM     24  C   UNL     1       3.463   0.581   0.029  0.00  0.00    +0.166 A 
ATOM     25  C   UNL     1       2.271   0.580   0.735  0.00  0.00    +0.006 A 
ATOM     26  C   UNL     1       2.097   1.445   1.799  0.00  0.00    +0.008 A 
ATOM     27  C   UNL     1       3.114   2.307   2.166  0.00  0.00    +0.004 A 
ATOM     28  C   UNL     1       4.308   2.309   1.469  0.00  0.00    +0.049 A 
BRANCH  23  30
ATOM     29  C   UNL     1       6.497   2.432   0.325  0.00  0.00    +0.277 C 
ATOM     30  O   UNL     1       5.662   1.446  -0.285  0.00  0.00    -0.491 OA
ENDBRANCH  23  30
BRANCH  24  31
ATOM     31  O   UNL     1       3.635  -0.269  -1.019  0.00  0.00    -0.485 OA
BRANCH  31  32
ATOM     32  C   UNL     1       4.142  -1.492  -0.480  0.00  0.00    +0.174 C 
ATOM     33  C   UNL     1       5.682  -1.512  -0.573  0.00  0.00    +0.044 C 
ATOM     34  C   UNL     1       6.023  -2.986  -0.907  0.00  0.00    +0.004 C 
ATOM     35  C   UNL     1       4.886  -3.388  -1.879  0.00  0.00    +0.004 C 
ATOM     36  C   UNL     1       3.636  -2.684  -1.310  0.00  0.00    +0.044 C 
ENDBRANCH  31  32
ENDBRANCH  24  31
ENDBRANCH   1  25
TORSDOF 4
