REMARK  Name = m148
REMARK  8 active torsions:
REMARK  status: ('A' for Active; 'I' for Inactive)
REMARK    1  A    between atoms: C_1  and  C_2
REMARK    2  A    between atoms: N_4  and  C_5
REMARK    3  A    between atoms: C_8  and  C_9
REMARK    4  A    between atoms: C_11  and  S_12
REMARK    5  A    between atoms: S_12  and  N_15
REMARK    6  A    between atoms: C_20  and  C_21
REMARK    7  A    between atoms: C_23  and  C_24
REMARK    8  A    between atoms: N_33  and  C_34
REMARK                            x       y       z     vdW  Elec       q    Type
REMARK                         _______ _______ _______ _____ _____    ______ ____
ROOT
ATOM      1  N   UNL     1       1.725   0.871  -0.473  0.00  0.00    -0.172 NA
ATOM      2  C   UNL     1       0.354   0.467  -0.110  0.00  0.00    +0.148 C 
ATOM      3  C   UNL     1      -0.497   1.709  -0.111  0.00  0.00    +0.022 A 
ATOM      4  C   UNL     1      -1.896   1.797  -0.033  0.00  0.00    +0.154 A 
ATOM      5  N   UNL     1      -2.220   3.077  -0.062  0.00  0.00    -0.166 NA
ATOM      6  N   UNL     1      -1.037   3.825  -0.159  0.00  0.00    -0.270 N 
ATOM      7  C   UNL     1      -0.946   5.286  -0.216  0.00  0.00    +0.172 C 
ATOM      8  C   UNL     1      -0.001   2.966  -0.191  0.00  0.00    +0.045 A 
ATOM      9  C   UNL     1       1.467   3.299  -0.296  0.00  0.00    +0.072 C 
ATOM     10  C   UNL     1       2.284   2.080   0.149  0.00  0.00    +0.116 C 
ENDROOT
BRANCH   4  11
ATOM     11  C   UNL     1      -2.837   0.661   0.064  0.00  0.00    +0.279 A 
ATOM     12  O   UNL     1      -2.518  -0.642   0.088  0.00  0.00    -0.331 OA
ATOM     13  N   UNL     1      -3.525  -1.312   0.176  0.00  0.00    -0.056 NA
ATOM     14  C   UNL     1      -4.582  -0.543   0.209  0.00  0.00    +0.202 A 
ATOM     15  N   UNL     1      -4.153   0.735   0.137  0.00  0.00    -0.186 NA
BRANCH  14  16
ATOM     16  C   UNL     1      -5.994  -0.992   0.307  0.00  0.00    +0.022 A 
ATOM     17  C   UNL     1      -7.025  -0.056   0.339  0.00  0.00    +0.012 A 
ATOM     18  C   UNL     1      -8.335  -0.479   0.425  0.00  0.00    +0.001 A 
ATOM     19  C   UNL     1      -8.626  -1.830   0.491  0.00  0.00    +0.000 A 
ATOM     20  C   UNL     1      -7.606  -2.764   0.466  0.00  0.00    +0.001 A 
ATOM     21  C   UNL     1      -6.291  -2.351   0.374  0.00  0.00    +0.012 A 
ENDBRANCH  14  16
ENDBRANCH   4  11
BRANCH   1  22
ATOM     22  S   UNL     1       2.610  -0.012  -1.559  0.00  0.00    +0.063 S 
ATOM     23  O   UNL     1       1.664  -0.600  -2.441  0.00  0.00    -0.153 OA
ATOM     24  O   UNL     1       3.688   0.828  -1.951  0.00  0.00    -0.153 OA
BRANCH  22  26
ATOM     25  C   UNL     1       4.271  -1.099   0.322  0.00  0.00    +0.060 A 
ATOM     26  C   UNL     1       3.342  -1.351  -0.679  0.00  0.00    +0.127 A 
ATOM     27  C   UNL     1       3.000  -2.652  -0.990  0.00  0.00    +0.033 A 
ATOM     28  C   UNL     1       3.573  -3.704  -0.299  0.00  0.00    -0.048 A 
ATOM     29  C   UNL     1       3.193  -5.122  -0.637  0.00  0.00    +0.044 C 
ATOM     30  C   UNL     1       4.495  -3.456   0.703  0.00  0.00    +0.005 A 
ATOM     31  C   UNL     1       4.845  -2.158   1.015  0.00  0.00    +0.025 A 
BRANCH  25  34
ATOM     32  C   UNL     1       5.601   1.902   2.163  0.00  0.00    +0.109 C 
ATOM     33  C   UNL     1       5.085   0.517   1.867  0.00  0.00    +0.214 C 
ATOM     34  N   UNL     1       4.624   0.218   0.636  0.00  0.00    -0.284 N 
ATOM     35  H   UNL     1       4.537   0.916  -0.032  0.00  0.00    +0.155 HD
ATOM     36  O   UNL     1       5.085  -0.329   2.736  0.00  0.00    -0.276 OA
ENDBRANCH  25  34
ENDBRANCH  22  26
ENDBRANCH   1  22
TORSDOF 5
