REMARK  Name = m149
REMARK  4 active torsions:
REMARK  status: ('A' for Active; 'I' for Inactive)
REMARK    1  A    between atoms: C_2  and  O_3
REMARK    2  A    between atoms: C_2  and  C_4
REMARK    3  A    between atoms: C_9  and  C_11
REMARK    4  A    between atoms: C_15  and  N_16
REMARK                            x       y       z     vdW  Elec       q    Type
REMARK                         _______ _______ _______ _____ _____    ______ ____
ROOT
ATOM      1  C   UNL     1       0.586  -1.285   0.434  0.00  0.00    +0.039 A 
ATOM      2  C   UNL     1      -0.245  -0.166   0.440  0.00  0.00    +0.036 A 
ATOM      3  C   UNL     1      -1.611  -0.324   0.620  0.00  0.00    +0.033 A 
ATOM      4  C   UNL     1      -2.146  -1.593   0.806  0.00  0.00    +0.023 A 
ATOM      5  C   UNL     1      -1.320  -2.702   0.806  0.00  0.00    +0.003 A 
ATOM      6  C   UNL     1       0.040  -2.556   0.622  0.00  0.00    +0.013 A 
ENDROOT
BRANCH   3   7
ATOM      7  N   UNL     1      -2.450   0.795   0.621  0.00  0.00    -0.298 N 
ATOM      8  H   UNL     1      -2.153   1.624   1.027  0.00  0.00    +0.154 HD
ATOM      9  C   UNL     1      -3.711   0.719   0.039  0.00  0.00    +0.141 A 
ATOM     10  N   UNL     1      -4.072  -0.371  -0.626  0.00  0.00    -0.237 NA
ATOM     11  C   UNL     1      -5.274  -0.442  -1.173  0.00  0.00    +0.132 A 
ATOM     12  C   UNL     1      -6.149   0.622  -1.063  0.00  0.00    +0.130 A 
ATOM     13  N   UNL     1      -5.792   1.712  -0.405  0.00  0.00    -0.258 NA
ATOM     14  C   UNL     1      -4.597   1.789   0.148  0.00  0.00    +0.154 A 
ENDBRANCH   3   7
BRANCH   1  17
ATOM     15  C   UNL     1       4.037   0.394   0.224  0.00  0.00    +0.185 C 
ATOM     16  N   UNL     1       2.634   0.055   0.505  0.00  0.00    -0.284 N 
ATOM     17  C   UNL     1       2.043  -1.126   0.236  0.00  0.00    +0.247 C 
ATOM     18  O   UNL     1       2.707  -2.060  -0.169  0.00  0.00    -0.270 OA
ATOM     19  C   UNL     1       1.982   1.220   1.129  0.00  0.00    +0.109 C 
ATOM     20  C   UNL     1       3.139   2.026   1.771  0.00  0.00    +0.021 C 
ATOM     21  C   UNL     1       4.269   1.836   0.724  0.00  0.00    +0.035 C 
BRANCH  15  23
ATOM     22  O   UNL     1       3.405  -0.000  -2.012  0.00  0.00    -0.249 OA
ATOM     23  C   UNL     1       4.295   0.319  -1.259  0.00  0.00    +0.325 C 
BRANCH  23  24
ATOM     24  O   UNL     1       5.512   0.611  -1.744  0.00  0.00    -0.479 OA
ATOM     25  H   UNL     1       5.677   0.567  -2.696  0.00  0.00    +0.295 HD
ENDBRANCH  23  24
ENDBRANCH  15  23
ENDBRANCH   1  17
TORSDOF 4
