REMARK  Name = m150
REMARK  7 active torsions:
REMARK  status: ('A' for Active; 'I' for Inactive)
REMARK    1  A    between atoms: C_1  and  C_2
REMARK    2  A    between atoms: C_2  and  N_3
REMARK    3  A    between atoms: C_2  and  C_22
REMARK    4  A    between atoms: C_4  and  C_6
REMARK    5  A    between atoms: C_11  and  C_12
REMARK    6  A    between atoms: C_25  and  S_26
REMARK    7  A    between atoms: S_26  and  C_27
REMARK                            x       y       z     vdW  Elec       q    Type
REMARK                         _______ _______ _______ _____ _____    ______ ____
ROOT
ATOM      1  N   UNL     1       0.677   0.392   0.627  0.00  0.00    -0.305 N 
ATOM      2  H   UNL     1       1.163   1.231   0.654  0.00  0.00    +0.150 HD
ATOM      3  C   UNL     1      -0.642   0.386   0.348  0.00  0.00    +0.248 C 
ATOM      4  O   UNL     1      -1.252  -0.666   0.315  0.00  0.00    -0.270 OA
ENDROOT
BRANCH   3   5
ATOM      5  C   UNL     1      -1.344   1.653   0.083  0.00  0.00    +0.082 A 
ATOM      6  C   UNL     1      -2.764   1.819  -0.240  0.00  0.00    +0.105 A 
ATOM      7  N   UNL     1      -2.974   3.107  -0.397  0.00  0.00    -0.173 NA
ATOM      8  N   UNL     1      -1.771   3.792  -0.204  0.00  0.00    -0.283 N 
ATOM      9  H   UNL     1      -1.659   4.754  -0.269  0.00  0.00    +0.188 HD
ATOM     10  C   UNL     1      -0.794   2.919   0.084  0.00  0.00    +0.118 A 
BRANCH   6  11
ATOM     11  C   UNL     1      -3.774   0.741  -0.358  0.00  0.00    +0.007 A 
ATOM     12  C   UNL     1      -5.056   0.924   0.148  0.00  0.00    +0.059 A 
ATOM     13  C   UNL     1      -6.012  -0.081   0.035  0.00  0.00    +0.163 A 
ATOM     14  O   UNL     1      -7.235   0.179   0.566  0.00  0.00    -0.485 OA
ATOM     15  C   UNL     1      -8.182  -0.724   0.005  0.00  0.00    +0.270 C 
ATOM     16  C   UNL     1      -7.633  -2.148   0.158  0.00  0.00    +0.270 C 
ATOM     17  O   UNL     1      -6.549  -2.306  -0.751  0.00  0.00    -0.485 OA
ATOM     18  C   UNL     1      -5.679  -1.276  -0.582  0.00  0.00    +0.162 A 
ATOM     19  C   UNL     1      -4.388  -1.460  -1.080  0.00  0.00    +0.050 A 
ATOM     20  C   UNL     1      -3.443  -0.466  -0.972  0.00  0.00    +0.014 A 
ENDBRANCH   6  11
ENDBRANCH   3   5
BRANCH   1  22
ATOM     21  C   UNL     1       1.214  -1.243   2.366  0.00  0.00    +0.033 C 
ATOM     22  C   UNL     1       1.375  -0.868   0.891  0.00  0.00    +0.100 C 
BRANCH  22  23
ATOM     23  C   UNL     1       2.839  -0.708   0.571  0.00  0.00    -0.027 A 
ATOM     24  C   UNL     1       3.494   0.465   0.899  0.00  0.00    +0.007 A 
ATOM     25  C   UNL     1       4.837   0.610   0.609  0.00  0.00    +0.027 A 
ATOM     26  C   UNL     1       5.524  -0.413  -0.016  0.00  0.00    +0.088 A 
ATOM     27  C   UNL     1       4.869  -1.584  -0.349  0.00  0.00    +0.027 A 
ATOM     28  C   UNL     1       3.526  -1.731  -0.056  0.00  0.00    +0.007 A 
BRANCH  26  29
ATOM     29  S   UNL     1       7.236  -0.226  -0.390  0.00  0.00    -0.006 S 
ATOM     30  O   UNL     1       7.703  -1.567  -0.409  0.00  0.00    -0.170 OA
ATOM     31  O   UNL     1       7.671   0.711   0.586  0.00  0.00    -0.170 OA
ATOM     32  C   UNL     1       7.219   0.500  -2.052  0.00  0.00    +0.200 C 
ENDBRANCH  26  29
ENDBRANCH  22  23
ENDBRANCH   1  22
TORSDOF 5
