REMARK  Name = m151
REMARK  10 active torsions:
REMARK  status: ('A' for Active; 'I' for Inactive)
REMARK    1  A    between atoms: C_1  and  C_2
REMARK    2  A    between atoms: C_2  and  C_3
REMARK    3  A    between atoms: C_3  and  C_4
REMARK    4  A    between atoms: C_4  and  O_5
REMARK    5  A    between atoms: O_5  and  C_6
REMARK    6  A    between atoms: C_7  and  O_8
REMARK    7  A    between atoms: O_8  and  C_9
REMARK    8  A    between atoms: C_13  and  C_14
REMARK    9  A    between atoms: C_21  and  C_22
REMARK   10  A    between atoms: C_31  and  C_32
REMARK                            x       y       z     vdW  Elec       q    Type
REMARK                         _______ _______ _______ _____ _____    ______ ____
ROOT
ATOM      1  C   UNL     1       1.310   0.257  -0.266  0.00  0.00    +0.067 C 
ATOM      2  C   UNL     1       0.092  -0.500   0.199  0.00  0.00    +0.023 A 
ATOM      3  C   UNL     1       0.004  -1.710   0.873  0.00  0.00    +0.066 A 
ATOM      4  N   UNL     1      -1.265  -1.976   1.079  0.00  0.00    -0.168 NA
ATOM      5  N   UNL     1      -2.033  -0.932   0.536  0.00  0.00    -0.198 N 
ATOM      6  C   UNL     1      -3.428  -0.838   0.554  0.00  0.00    +0.176 A 
ATOM      7  N   UNL     1      -4.013   0.202   0.011  0.00  0.00    -0.144 NA
ATOM      8  N   UNL     1      -5.405   0.314   0.014  0.00  0.00    -0.195 N 
ATOM      9  C   UNL     1      -6.173  -0.665   0.598  0.00  0.00    +0.178 A 
ATOM     10  N   UNL     1      -7.436  -0.296   0.457  0.00  0.00    -0.128 NA
ATOM     11  N   UNL     1      -7.483   0.829  -0.167  0.00  0.00    -0.132 NA
ATOM     12  C   UNL     1      -5.542  -1.777   1.186  0.00  0.00    +0.054 A 
ATOM     13  C   UNL     1      -6.271   1.236  -0.456  0.00  0.00    +0.152 A 
ATOM     14  C   UNL     1      -5.910   2.507  -1.182  0.00  0.00    +0.090 C 
ATOM     15  C   UNL     1      -4.184  -1.858   1.161  0.00  0.00    +0.054 A 
ATOM     16  C   UNL     1       1.166  -2.570   1.297  0.00  0.00    +0.068 C 
ATOM     17  C   UNL     1      -1.181  -0.037  -0.007  0.00  0.00    +0.134 A 
ATOM     18  N   UNL     1      -1.431   1.161  -0.675  0.00  0.00    -0.270 N 
ATOM     19  H   UNL     1      -2.319   1.549  -0.687  0.00  0.00    +0.156 HD
ATOM     20  C   UNL     1      -0.400   1.763  -1.305  0.00  0.00    +0.219 C 
ATOM     21  O   UNL     1      -0.548   2.890  -1.729  0.00  0.00    -0.275 OA
ATOM     22  C   UNL     1       0.925   1.081  -1.498  0.00  0.00    +0.109 C 
ENDROOT
BRANCH   1  24
ATOM     23  C   UNL     1       3.630  -0.648   0.014  0.00  0.00    +0.166 A 
ATOM     24  C   UNL     1       2.404  -0.715  -0.628  0.00  0.00    +0.006 A 
ATOM     25  C   UNL     1       2.188  -1.666  -1.608  0.00  0.00    +0.008 A 
ATOM     26  C   UNL     1       3.189  -2.559  -1.942  0.00  0.00    +0.004 A 
ATOM     27  C   UNL     1       4.413  -2.501  -1.302  0.00  0.00    +0.049 A 
ATOM     28  C   UNL     1       4.638  -1.547  -0.323  0.00  0.00    +0.162 A 
BRANCH  28  29
ATOM     29  O   UNL     1       5.842  -1.488   0.308  0.00  0.00    -0.491 OA
ATOM     30  C   UNL     1       6.651  -2.525  -0.250  0.00  0.00    +0.277 C 
ENDBRANCH  28  29
BRANCH  23  31
ATOM     31  O   UNL     1       3.846   0.290   0.974  0.00  0.00    -0.488 OA
BRANCH  31  32
ATOM     32  C   UNL     1       4.369   1.445   0.313  0.00  0.00    +0.229 C 
BRANCH  32  33
ATOM     33  C   UNL     1       4.636   2.545   1.343  0.00  0.00    +0.041 C 
BRANCH  33  35
ATOM     34  C   UNL     1       5.462   4.881   1.665  0.00  0.00    +0.004 C 
ATOM     35  C   UNL     1       5.195   3.781   0.635  0.00  0.00    -0.000 C 
ENDBRANCH  33  35
ENDBRANCH  32  33
ENDBRANCH  31  32
ENDBRANCH  23  31
ENDBRANCH   1  24
TORSDOF 6
