REMARK  Name = m152
REMARK  8 active torsions:
REMARK  status: ('A' for Active; 'I' for Inactive)
REMARK    1  A    between atoms: C_2  and  C_3
REMARK    2  A    between atoms: C_3  and  O_4
REMARK    3  A    between atoms: O_4  and  C_5
REMARK    4  A    between atoms: C_6  and  O_7
REMARK    5  A    between atoms: O_7  and  C_8
REMARK    6  A    between atoms: C_12  and  C_13
REMARK    7  A    between atoms: C_20  and  C_21
REMARK    8  A    between atoms: C_30  and  C_31
REMARK                            x       y       z     vdW  Elec       q    Type
REMARK                         _______ _______ _______ _____ _____    ______ ____
ROOT
ATOM      1  C   UNL     1       1.458   0.565  -0.140  0.00  0.00    +0.067 C 
ATOM      2  C   UNL     1       0.286  -0.321   0.201  0.00  0.00    +0.023 A 
ATOM      3  C   UNL     1       0.271  -1.610   0.714  0.00  0.00    +0.066 A 
ATOM      4  N   UNL     1      -0.980  -1.981   0.859  0.00  0.00    -0.168 NA
ATOM      5  N   UNL     1      -1.809  -0.927   0.440  0.00  0.00    -0.198 N 
ATOM      6  C   UNL     1      -3.207  -0.925   0.443  0.00  0.00    +0.176 A 
ATOM      7  N   UNL     1      -3.854   0.137   0.026  0.00  0.00    -0.144 NA
ATOM      8  N   UNL     1      -5.250   0.158   0.016  0.00  0.00    -0.195 N 
ATOM      9  C   UNL     1      -5.958  -0.934   0.456  0.00  0.00    +0.178 A 
ATOM     10  N   UNL     1      -7.241  -0.631   0.339  0.00  0.00    -0.128 NA
ATOM     11  N   UNL     1      -7.354   0.559  -0.138  0.00  0.00    -0.132 NA
ATOM     12  C   UNL     1      -5.262  -2.070   0.909  0.00  0.00    +0.054 A 
ATOM     13  C   UNL     1      -6.170   1.077  -0.349  0.00  0.00    +0.152 A 
ATOM     14  C   UNL     1      -5.885   2.450  -0.899  0.00  0.00    +0.090 C 
ATOM     15  C   UNL     1      -3.902  -2.061   0.900  0.00  0.00    +0.054 A 
ATOM     16  C   UNL     1       1.482  -2.442   1.047  0.00  0.00    +0.068 C 
ATOM     17  C   UNL     1      -1.011   0.083   0.032  0.00  0.00    +0.134 A 
ATOM     18  N   UNL     1      -1.332   1.338  -0.482  0.00  0.00    -0.270 N 
ATOM     19  H   UNL     1      -2.244   1.667  -0.462  0.00  0.00    +0.156 HD
ATOM     20  C   UNL     1      -0.336   2.081  -1.010  0.00  0.00    +0.219 C 
ATOM     21  O   UNL     1      -0.553   3.241  -1.290  0.00  0.00    -0.275 OA
ATOM     22  C   UNL     1       1.033   1.515  -1.263  0.00  0.00    +0.109 C 
ENDROOT
BRANCH   1  24
ATOM     23  C   UNL     1       3.829  -0.219   0.067  0.00  0.00    +0.166 A 
ATOM     24  C   UNL     1       2.617  -0.281  -0.601  0.00  0.00    +0.006 A 
ATOM     25  C   UNL     1       2.474  -1.109  -1.699  0.00  0.00    +0.008 A 
ATOM     26  C   UNL     1       3.535  -1.886  -2.124  0.00  0.00    +0.004 A 
ATOM     27  C   UNL     1       4.746  -1.833  -1.458  0.00  0.00    +0.049 A 
ATOM     28  C   UNL     1       4.897  -1.001  -0.362  0.00  0.00    +0.162 A 
BRANCH  28  29
ATOM     29  O   UNL     1       6.087  -0.948   0.295  0.00  0.00    -0.491 OA
ATOM     30  C   UNL     1       6.969  -1.851  -0.376  0.00  0.00    +0.277 C 
ENDBRANCH  28  29
BRANCH  23  31
ATOM     31  O   UNL     1       3.972   0.600   1.143  0.00  0.00    -0.484 OA
BRANCH  31  32
ATOM     32  C   UNL     1       4.425   1.861   0.645  0.00  0.00    +0.256 C 
BRANCH  32  34
ATOM     33  C   UNL     1       5.680   3.565   1.863  0.00  0.00    +0.007 C 
ATOM     34  C   UNL     1       4.605   2.819   1.794  0.00  0.00    +0.006 C 
ENDBRANCH  32  34
ENDBRANCH  31  32
ENDBRANCH  23  31
ENDBRANCH   1  24
TORSDOF 5
