REMARK  Name = m153
REMARK  9 active torsions:
REMARK  status: ('A' for Active; 'I' for Inactive)
REMARK    1  A    between atoms: C_1  and  C_2
REMARK    2  A    between atoms: C_2  and  C_3
REMARK    3  A    between atoms: C_3  and  O_4
REMARK    4  A    between atoms: O_4  and  C_5
REMARK    5  A    between atoms: C_6  and  O_7
REMARK    6  A    between atoms: O_7  and  C_8
REMARK    7  A    between atoms: C_12  and  C_13
REMARK    8  A    between atoms: C_20  and  C_21
REMARK    9  A    between atoms: C_30  and  C_31
REMARK                            x       y       z     vdW  Elec       q    Type
REMARK                         _______ _______ _______ _____ _____    ______ ____
ROOT
ATOM      1  C   UNL     1      -1.459   0.519   0.117  0.00  0.00    +0.067 C 
ATOM      2  C   UNL     1      -0.279  -0.361  -0.211  0.00  0.00    +0.023 A 
ATOM      3  C   UNL     1      -0.251  -1.654  -0.713  0.00  0.00    +0.066 A 
ATOM      4  N   UNL     1       1.003  -2.016  -0.849  0.00  0.00    -0.168 NA
ATOM      5  N   UNL     1       1.822  -0.953  -0.433  0.00  0.00    -0.198 N 
ATOM      6  C   UNL     1       3.220  -0.940  -0.430  0.00  0.00    +0.176 A 
ATOM      7  N   UNL     1       3.856   0.130  -0.017  0.00  0.00    -0.144 NA
ATOM      8  N   UNL     1       5.252   0.162  -0.000  0.00  0.00    -0.195 N 
ATOM      9  C   UNL     1       5.971  -0.928  -0.428  0.00  0.00    +0.178 A 
ATOM     10  N   UNL     1       7.251  -0.616  -0.307  0.00  0.00    -0.128 NA
ATOM     11  N   UNL     1       7.353   0.580   0.161  0.00  0.00    -0.132 NA
ATOM     12  C   UNL     1       5.286  -2.074  -0.876  0.00  0.00    +0.054 A 
ATOM     13  C   UNL     1       6.163   1.090   0.362  0.00  0.00    +0.152 A 
ATOM     14  C   UNL     1       5.865   2.466   0.900  0.00  0.00    +0.090 C 
ATOM     15  C   UNL     1       3.926  -2.074  -0.874  0.00  0.00    +0.054 A 
ATOM     16  C   UNL     1      -1.455  -2.497  -1.046  0.00  0.00    +0.068 C 
ATOM     17  C   UNL     1       1.015   0.054  -0.038  0.00  0.00    +0.134 A 
ATOM     18  N   UNL     1       1.323   1.316   0.468  0.00  0.00    -0.270 N 
ATOM     19  H   UNL     1       2.233   1.652   0.450  0.00  0.00    +0.156 HD
ATOM     20  C   UNL     1       0.319   2.056   0.985  0.00  0.00    +0.219 C 
ATOM     21  O   UNL     1       0.526   3.220   1.256  0.00  0.00    -0.275 OA
ATOM     22  C   UNL     1      -1.047   1.482   1.235  0.00  0.00    +0.109 C 
ENDROOT
BRANCH   1  24
ATOM     23  C   UNL     1      -3.822  -0.283  -0.096  0.00  0.00    +0.166 A 
ATOM     24  C   UNL     1      -2.614  -0.331   0.579  0.00  0.00    +0.006 A 
ATOM     25  C   UNL     1      -2.471  -1.150   1.684  0.00  0.00    +0.008 A 
ATOM     26  C   UNL     1      -3.528  -1.932   2.110  0.00  0.00    +0.004 A 
ATOM     27  C   UNL     1      -4.736  -1.893   1.438  0.00  0.00    +0.049 A 
ATOM     28  C   UNL     1      -4.888  -1.070   0.334  0.00  0.00    +0.162 A 
BRANCH  28  29
ATOM     29  O   UNL     1      -6.074  -1.031  -0.329  0.00  0.00    -0.491 OA
ATOM     30  C   UNL     1      -6.953  -1.935   0.343  0.00  0.00    +0.277 C 
ENDBRANCH  28  29
BRANCH  23  31
ATOM     31  O   UNL     1      -3.967   0.526  -1.179  0.00  0.00    -0.488 OA
BRANCH  31  32
ATOM     32  C   UNL     1      -4.432   1.787  -0.694  0.00  0.00    +0.229 C 
BRANCH  32  34
ATOM     33  C   UNL     1      -5.113   4.100  -1.349  0.00  0.00    +0.007 C 
ATOM     34  C   UNL     1      -4.615   2.749  -1.869  0.00  0.00    +0.038 C 
ENDBRANCH  32  34
ENDBRANCH  31  32
ENDBRANCH  23  31
ENDBRANCH   1  24
TORSDOF 5
