REMARK  Name = m154
REMARK  9 active torsions:
REMARK  status: ('A' for Active; 'I' for Inactive)
REMARK    1  A    between atoms: C_1  and  O_2
REMARK    2  A    between atoms: O_2  and  C_3
REMARK    3  A    between atoms: C_11  and  C_12
REMARK    4  A    between atoms: C_19  and  C_20
REMARK    5  A    between atoms: C_23  and  O_24
REMARK    6  A    between atoms: O_24  and  C_25
REMARK    7  A    between atoms: C_25  and  C_26
REMARK    8  A    between atoms: C_29  and  O_30
REMARK    9  A    between atoms: O_30  and  C_31
REMARK                            x       y       z     vdW  Elec       q    Type
REMARK                         _______ _______ _______ _____ _____    ______ ____
ROOT
ATOM      1  C   UNL     1       7.044  -1.471   0.297  0.00  0.00    +0.121 A 
ATOM      2  C   UNL     1       6.411  -0.645   1.214  0.00  0.00    +0.063 A 
ATOM      3  C   UNL     1       5.166  -0.145   0.925  0.00  0.00    +0.044 A 
ATOM      4  C   UNL     1       4.484  -0.446  -0.277  0.00  0.00    +0.081 A 
ATOM      5  N   UNL     1       3.264   0.118  -0.413  0.00  0.00    -0.221 NA
ATOM      6  C   UNL     1       2.739   0.895   0.503  0.00  0.00    +0.196 A 
ATOM      7  N   UNL     1       1.507   1.538   0.500  0.00  0.00    -0.193 N 
ATOM      8  C   UNL     1       0.584   1.488  -0.486  0.00  0.00    +0.135 A 
ATOM      9  N   UNL     1       0.606   0.830  -1.714  0.00  0.00    -0.270 N 
ATOM     10  H   UNL     1       1.302   0.188  -1.923  0.00  0.00    +0.156 HD
ATOM     11  C   UNL     1      -0.370   1.111  -2.603  0.00  0.00    +0.219 C 
ATOM     12  C   UNL     1      -1.325   2.254  -2.406  0.00  0.00    +0.109 C 
ATOM     13  C   UNL     1      -1.723   2.401  -0.936  0.00  0.00    +0.063 C 
ATOM     14  O   UNL     1      -0.479   0.419  -3.594  0.00  0.00    -0.275 OA
ATOM     15  C   UNL     1      -0.486   2.245  -0.089  0.00  0.00    +0.023 A 
ATOM     16  C   UNL     1      -0.193   2.780   1.158  0.00  0.00    +0.066 A 
ATOM     17  C   UNL     1      -1.089   3.687   1.962  0.00  0.00    +0.068 C 
ATOM     18  N   UNL     1       0.998   2.362   1.517  0.00  0.00    -0.168 NA
ATOM     19  C   UNL     1       5.160  -1.296  -1.183  0.00  0.00    +0.032 A 
ATOM     20  S   UNL     1       4.011   0.916   1.759  0.00  0.00    -0.048 S 
ATOM     21  C   UNL     1       6.396  -1.784  -0.894  0.00  0.00    +0.048 A 
ENDROOT
BRANCH  13  22
ATOM     22  C   UNL     1      -2.717   1.329  -0.570  0.00  0.00    -0.036 A 
ATOM     23  C   UNL     1      -3.973   1.681  -0.112  0.00  0.00    +0.053 A 
ATOM     24  C   UNL     1      -4.890   0.697   0.221  0.00  0.00    +0.162 A 
ATOM     25  C   UNL     1      -4.540  -0.645   0.102  0.00  0.00    +0.163 A 
ATOM     26  C   UNL     1      -3.278  -0.991  -0.354  0.00  0.00    +0.050 A 
ATOM     27  C   UNL     1      -2.369  -0.004  -0.688  0.00  0.00    +0.008 A 
BRANCH  24  28
ATOM     28  O   UNL     1      -6.128   1.041   0.667  0.00  0.00    -0.491 OA
ATOM     29  C   UNL     1      -6.180   2.469   0.678  0.00  0.00    +0.277 C 
ENDBRANCH  24  28
BRANCH  25  30
ATOM     30  O   UNL     1      -5.435  -1.615   0.431  0.00  0.00    -0.479 OA
BRANCH  30  31
ATOM     31  C   UNL     1      -4.787  -2.868   0.205  0.00  0.00    +0.324 C 
BRANCH  31  32
ATOM     32  C   UNL     1      -5.731  -3.991   0.553  0.00  0.00    +0.248 C 
ATOM     33  O   UNL     1      -6.847  -3.742   0.956  0.00  0.00    -0.272 OA
ATOM     34  N   UNL     1      -5.333  -5.271   0.417  0.00  0.00    -0.327 N 
ATOM     35  H   UNL     1      -5.941  -5.994   0.641  0.00  0.00    +0.145 HD
ATOM     36  H   UNL     1      -4.440  -5.471   0.095  0.00  0.00    +0.145 HD
ENDBRANCH  31  32
ENDBRANCH  30  31
ENDBRANCH  25  30
ENDBRANCH  13  22
BRANCH   1  38
ATOM     37  C   UNL     1       8.646  -2.779  -0.561  0.00  0.00    +0.277 C 
ATOM     38  O   UNL     1       8.280  -1.973   0.561  0.00  0.00    -0.495 OA
ENDBRANCH   1  38
TORSDOF 6
