REMARK  Name = m155
REMARK  5 active torsions:
REMARK  status: ('A' for Active; 'I' for Inactive)
REMARK    1  A    between atoms: C_1  and  C_2
REMARK    2  A    between atoms: C_2  and  N_3
REMARK    3  A    between atoms: N_11  and  C_12
REMARK    4  A    between atoms: C_12  and  C_13
REMARK    5  A    between atoms: C_18  and  C_19
REMARK                            x       y       z     vdW  Elec       q    Type
REMARK                         _______ _______ _______ _____ _____    ______ ____
ROOT
ATOM      1  N   UNL     1       5.504   0.202  -0.126  0.00  0.00    -0.225 N 
ATOM      2  C   UNL     1       4.920  -0.659  -0.976  0.00  0.00    +0.312 C 
ATOM      3  O   UNL     1       5.488  -1.184  -1.914  0.00  0.00    -0.252 OA
ATOM      4  N   UNL     1       3.638  -0.864  -0.662  0.00  0.00    -0.273 N 
ATOM      5  C   UNL     1       3.510  -0.445   0.762  0.00  0.00    +0.165 C 
ATOM      6  C   UNL     1       2.204   0.378   0.755  0.00  0.00    +0.040 C 
ATOM      7  C   UNL     1       1.313  -0.432  -0.213  0.00  0.00    -0.009 C 
ATOM      8  C   UNL     1       0.500   0.514  -1.091  0.00  0.00    +0.024 C 
ATOM      9  C   UNL     1      -0.526   1.252  -0.226  0.00  0.00    +0.085 C 
ATOM     10  N   UNL     1      -1.429   0.282   0.404  0.00  0.00    -0.298 NA
ATOM     11  C   UNL     1      -0.632  -0.511   1.346  0.00  0.00    +0.085 C 
ATOM     12  C   UNL     1       0.389  -1.353   0.577  0.00  0.00    +0.024 C 
ATOM     13  C   UNL     1       2.286  -1.257  -1.072  0.00  0.00    +0.117 C 
ATOM     14  C   UNL     1       4.720   0.439   0.949  0.00  0.00    +0.244 C 
ATOM     15  O   UNL     1       4.940   1.200   1.867  0.00  0.00    -0.273 OA
ENDROOT
BRANCH   1  17
ATOM     16  C   UNL     1       7.899  -0.079   0.283  0.00  0.00    +0.025 C 
ATOM     17  C   UNL     1       6.820   0.810  -0.339  0.00  0.00    +0.114 C 
ENDBRANCH   1  17
BRANCH  10  18
ATOM     18  C   UNL     1      -2.386   1.055   1.206  0.00  0.00    +0.123 C 
BRANCH  18  19
ATOM     19  C   UNL     1      -3.396   1.703   0.295  0.00  0.00    +0.012 A 
ATOM     20  C   UNL     1      -4.519   1.074  -0.282  0.00  0.00    +0.103 A 
ATOM     21  N   UNL     1      -5.156   1.970  -1.009  0.00  0.00    -0.173 NA
ATOM     22  N   UNL     1      -4.455   3.180  -0.920  0.00  0.00    -0.284 N 
ATOM     23  H   UNL     1      -4.696   4.010  -1.359  0.00  0.00    +0.188 HD
ATOM     24  C   UNL     1      -3.385   2.989  -0.118  0.00  0.00    +0.110 A 
BRANCH  20  25
ATOM     25  C   UNL     1      -4.916  -0.339  -0.097  0.00  0.00    +0.040 A 
ATOM     26  S   UNL     1      -3.882  -1.785   0.073  0.00  0.00    -0.095 S 
ATOM     27  C   UNL     1      -5.177  -3.001   0.247  0.00  0.00    +0.046 A 
ATOM     28  C   UNL     1      -6.297  -2.240   0.159  0.00  0.00    +0.008 A 
ATOM     29  C   UNL     1      -6.171  -0.878  -0.017  0.00  0.00    +0.018 A 
ENDBRANCH  20  25
ENDBRANCH  18  19
ENDBRANCH  10  18
TORSDOF 4
