REMARK  Name = m156
REMARK  9 active torsions:
REMARK  status: ('A' for Active; 'I' for Inactive)
REMARK    1  A    between atoms: C_1  and  C_2
REMARK    2  A    between atoms: N_4  and  C_5
REMARK    3  A    between atoms: C_5  and  C_6
REMARK    4  A    between atoms: C_6  and  C_7
REMARK    5  A    between atoms: C_6  and  C_8
REMARK    6  A    between atoms: C_10  and  S_11
REMARK    7  A    between atoms: S_11  and  N_14
REMARK    8  A    between atoms: C_17  and  C_18
REMARK    9  A    between atoms: C_19  and  C_20
REMARK                            x       y       z     vdW  Elec       q    Type
REMARK                         _______ _______ _______ _____ _____    ______ ____
ROOT
ATOM      1  N   UNL     1       0.300   1.391   0.300  0.00  0.00    -0.176 NA
ATOM      2  C   UNL     1      -0.834   0.793  -0.429  0.00  0.00    +0.117 C 
ATOM      3  C   UNL     1      -1.347  -0.338   0.500  0.00  0.00    +0.038 C 
ATOM      4  C   UNL     1      -1.167   0.306   1.900  0.00  0.00    +0.026 C 
ATOM      5  C   UNL     1       0.126   1.133   1.737  0.00  0.00    +0.110 C 
ENDROOT
BRANCH   3   6
ATOM      6  C   UNL     1      -2.798  -0.641   0.228  0.00  0.00    -0.015 A 
ATOM      7  C   UNL     1      -3.754   0.388   0.278  0.00  0.00    +0.012 A 
ATOM      8  C   UNL     1      -5.087  -0.003   0.003  0.00  0.00    +0.109 A 
ATOM      9  N   UNL     1      -6.089   0.847   0.008  0.00  0.00    -0.248 NA
ATOM     10  C   UNL     1      -5.901   2.126   0.269  0.00  0.00    +0.112 A 
ATOM     11  C   UNL     1      -4.629   2.606   0.547  0.00  0.00    +0.020 A 
ATOM     12  S   UNL     1      -4.946  -1.749  -0.295  0.00  0.00    -0.064 S 
ATOM     13  C   UNL     1      -3.554   1.766   0.553  0.00  0.00    +0.012 A 
ATOM     14  C   UNL     1      -3.185  -1.912  -0.062  0.00  0.00    +0.080 A 
BRANCH  14  15
ATOM     15  C   UNL     1      -2.357  -3.122  -0.159  0.00  0.00    +0.249 C 
ATOM     16  O   UNL     1      -1.175  -3.075   0.127  0.00  0.00    -0.270 OA
ATOM     17  N   UNL     1      -2.906  -4.284  -0.564  0.00  0.00    -0.325 N 
ATOM     18  H   UNL     1      -2.360  -5.083  -0.628  0.00  0.00    +0.145 HD
ATOM     19  H   UNL     1      -3.848  -4.321  -0.792  0.00  0.00    +0.145 HD
ENDBRANCH  14  15
ENDBRANCH   3   6
BRANCH   1  20
ATOM     20  S   UNL     1       1.558   2.221  -0.386  0.00  0.00    +0.064 S 
ATOM     21  O   UNL     1       1.132   2.550  -1.702  0.00  0.00    -0.153 OA
ATOM     22  O   UNL     1       1.987   3.154   0.597  0.00  0.00    -0.153 OA
BRANCH  20  25
ATOM     23  C   UNL     1       1.777  -0.473  -2.323  0.00  0.00    +0.069 C 
ATOM     24  C   UNL     1       2.904  -0.031  -1.425  0.00  0.00    +0.086 A 
ATOM     25  C   UNL     1       2.892   1.087  -0.584  0.00  0.00    +0.146 A 
ATOM     26  C   UNL     1       4.083   1.140   0.055  0.00  0.00    +0.137 A 
ATOM     27  N   UNL     1       4.826   0.097  -0.372  0.00  0.00    -0.269 N 
ATOM     28  N   UNL     1       4.064  -0.623  -1.300  0.00  0.00    -0.174 NA
BRANCH  27  29
ATOM     29  C   UNL     1       6.188  -0.225   0.060  0.00  0.00    +0.146 C 
BRANCH  29  30
ATOM     30  C   UNL     1       6.232  -1.662   0.583  0.00  0.00    +0.004 C 
ATOM     31  C   UNL     1       5.371  -1.771   1.844  0.00  0.00    +0.009 C 
ATOM     32  C   UNL     1       7.676  -2.039   0.917  0.00  0.00    +0.009 C 
ENDBRANCH  29  30
ENDBRANCH  27  29
ENDBRANCH  20  25
ENDBRANCH   1  20
TORSDOF 6
