REMARK  Name = m157
REMARK  9 active torsions:
REMARK  status: ('A' for Active; 'I' for Inactive)
REMARK    1  A    between atoms: C_1  and  O_2
REMARK    2  A    between atoms: O_2  and  C_3
REMARK    3  A    between atoms: C_3  and  C_4
REMARK    4  A    between atoms: C_4  and  N_5
REMARK    5  A    between atoms: C_6  and  C_8
REMARK    6  A    between atoms: C_8  and  N_9
REMARK    7  A    between atoms: C_14  and  C_15
REMARK    8  A    between atoms: C_17  and  C_18
REMARK    9  A    between atoms: C_27  and  C_28
REMARK                            x       y       z     vdW  Elec       q    Type
REMARK                         _______ _______ _______ _____ _____    ______ ____
ROOT
ATOM      1  N   UNL     1       3.811   0.856  -0.824  0.00  0.00    -0.290 N 
ATOM      2  C   UNL     1       2.822  -0.056  -0.911  0.00  0.00    +0.263 A 
ATOM      3  O   UNL     1       3.063  -1.213  -1.206  0.00  0.00    -0.267 OA
ATOM      4  C   UNL     1       1.437   0.384  -0.635  0.00  0.00    +0.076 A 
ATOM      5  C   UNL     1       1.298   1.752  -0.311  0.00  0.00    +0.116 A 
ATOM      6  S   UNL     1      -0.449   1.935  -0.053  0.00  0.00    -0.063 S 
ATOM      7  C   UNL     1      -0.935   0.247  -0.371  0.00  0.00    +0.082 A 
ATOM      8  N   UNL     1       2.342   2.569  -0.258  0.00  0.00    -0.230 NA
ATOM      9  C   UNL     1       0.252  -0.360  -0.655  0.00  0.00    -0.017 A 
ATOM     10  C   UNL     1       0.288  -1.829  -0.988  0.00  0.00    +0.046 C 
ATOM     11  C   UNL     1       3.553   2.148  -0.503  0.00  0.00    +0.203 A 
ENDROOT
BRANCH   7  12
ATOM     12  C   UNL     1      -2.280  -0.342  -0.336  0.00  0.00    +0.266 A 
ATOM     13  O   UNL     1      -2.601  -1.622  -0.590  0.00  0.00    -0.332 OA
ATOM     14  N   UNL     1      -3.798  -1.778  -0.470  0.00  0.00    -0.056 NA
ATOM     15  C   UNL     1      -4.375  -0.649  -0.145  0.00  0.00    +0.202 A 
ATOM     16  N   UNL     1      -3.410   0.288  -0.054  0.00  0.00    -0.187 NA
BRANCH  15  17
ATOM     17  C   UNL     1      -5.827  -0.439   0.083  0.00  0.00    +0.023 A 
ATOM     18  C   UNL     1      -6.304   0.823   0.431  0.00  0.00    +0.013 A 
ATOM     19  C   UNL     1      -7.655   1.015   0.636  0.00  0.00    +0.021 A 
ATOM     20  C   UNL     1      -8.535  -0.047   0.507  0.00  0.00    +0.041 A 
ATOM     21 CL   UNL     1     -10.233   0.199   0.773  0.00  0.00    -0.084 Cl
ATOM     22  C   UNL     1      -8.065  -1.304   0.166  0.00  0.00    +0.021 A 
ATOM     23  C   UNL     1      -6.716  -1.504  -0.046  0.00  0.00    +0.013 A 
ENDBRANCH  15  17
ENDBRANCH   7  12
BRANCH   1  24
ATOM     24  C   UNL     1       5.192   0.444  -1.089  0.00  0.00    +0.221 C 
BRANCH  24  27
ATOM     25  N   UNL     1       7.115  -0.432   0.197  0.00  0.00    -0.312 N 
ATOM     26  H   UNL     1       7.620  -0.449  -0.631  0.00  0.00    +0.149 HD
ATOM     27  C   UNL     1       5.837  -0.006   0.197  0.00  0.00    +0.233 C 
ATOM     28  O   UNL     1       5.205   0.016   1.232  0.00  0.00    -0.274 OA
BRANCH  25  29
ATOM     29  C   UNL     1       7.742  -0.869   1.447  0.00  0.00    +0.132 C 
BRANCH  29  30
ATOM     30  C   UNL     1       9.184  -1.299   1.171  0.00  0.00    +0.178 C 
BRANCH  30  32
ATOM     31  C   UNL     1      11.275  -0.632   0.501  0.00  0.00    +0.194 C 
ATOM     32  O   UNL     1       9.945  -0.168   0.742  0.00  0.00    -0.381 OA
ENDBRANCH  30  32
ENDBRANCH  29  30
ENDBRANCH  25  29
ENDBRANCH  24  27
ENDBRANCH   1  24
TORSDOF 7
