REMARK  Name = m158
REMARK  6 active torsions:
REMARK  status: ('A' for Active; 'I' for Inactive)
REMARK    1  A    between atoms: C_1  and  C_2
REMARK    2  A    between atoms: C_18  and  C_19
REMARK    3  A    between atoms: C_22  and  O_23
REMARK    4  A    between atoms: O_23  and  C_24
REMARK    5  A    between atoms: C_24  and  C_25
REMARK    6  A    between atoms: C_25  and  C_26
REMARK                            x       y       z     vdW  Elec       q    Type
REMARK                         _______ _______ _______ _____ _____    ______ ____
ROOT
ATOM      1  C   UNL     1      -4.031   3.053  -2.381  0.00  0.00    +0.090 C 
ATOM      2  C   UNL     1      -4.692   2.949  -1.031  0.00  0.00    +0.152 A 
ATOM      3  N   UNL     1      -4.512   1.961  -0.129  0.00  0.00    -0.195 N 
ATOM      4  C   UNL     1      -5.305   2.279   0.946  0.00  0.00    +0.178 A 
ATOM      5  C   UNL     1      -5.326   1.424   2.064  0.00  0.00    +0.054 A 
ATOM      6  C   UNL     1      -4.555   0.304   2.056  0.00  0.00    +0.054 A 
ATOM      7  C   UNL     1      -3.748   0.010   0.940  0.00  0.00    +0.176 A 
ATOM      8  N   UNL     1      -2.959  -1.144   0.944  0.00  0.00    -0.198 N 
ATOM      9  C   UNL     1      -2.145  -1.555  -0.051  0.00  0.00    +0.134 A 
ATOM     10  N   UNL     1      -1.861  -0.981  -1.289  0.00  0.00    -0.270 N 
ATOM     11  H   UNL     1      -2.125  -0.069  -1.488  0.00  0.00    +0.156 HD
ATOM     12  C   UNL     1      -1.209  -1.731  -2.202  0.00  0.00    +0.219 C 
ATOM     13  C   UNL     1      -0.914  -3.187  -1.980  0.00  0.00    +0.109 C 
ATOM     14  C   UNL     1      -0.582  -3.476  -0.516  0.00  0.00    +0.063 C 
ATOM     15  O   UNL     1      -0.848  -1.212  -3.237  0.00  0.00    -0.275 OA
ATOM     16  C   UNL     1      -1.558  -2.726   0.352  0.00  0.00    +0.020 A 
ATOM     17  C   UNL     1      -2.036  -3.030   1.619  0.00  0.00    +0.141 A 
ATOM     18  N   UNL     1      -2.876  -2.088   1.980  0.00  0.00    -0.171 NA
ATOM     19  N   UNL     1      -5.919   3.412   0.648  0.00  0.00    -0.128 NA
ATOM     20  N   UNL     1      -3.728   0.805  -0.103  0.00  0.00    -0.144 NA
ATOM     21  N   UNL     1      -5.550   3.799  -0.523  0.00  0.00    -0.132 NA
ENDROOT
BRANCH  14  22
ATOM     22  C   UNL     1       0.819  -3.009  -0.212  0.00  0.00    -0.039 A 
ATOM     23  C   UNL     1       1.154  -1.678  -0.376  0.00  0.00    +0.008 A 
ATOM     24  C   UNL     1       2.435  -1.247  -0.092  0.00  0.00    +0.046 A 
ATOM     25  C   UNL     1       3.389  -2.153   0.348  0.00  0.00    +0.121 A 
ATOM     26  C   UNL     1       3.052  -3.489   0.506  0.00  0.00    +0.046 A 
ATOM     27  C   UNL     1       1.768  -3.914   0.226  0.00  0.00    +0.008 A 
BRANCH  25  28
ATOM     28  O   UNL     1       4.652  -1.732   0.622  0.00  0.00    -0.492 OA
BRANCH  28  29
ATOM     29  C   UNL     1       4.684  -0.327   0.365  0.00  0.00    +0.233 C 
BRANCH  29  30
ATOM     30  C   UNL     1       6.086   0.213   0.656  0.00  0.00    +0.076 C 
BRANCH  30  31
ATOM     31  C   UNL     1       6.120   1.695   0.385  0.00  0.00    -0.044 A 
ATOM     32  C   UNL     1       6.459   2.160  -0.872  0.00  0.00    +0.004 A 
ATOM     33  C   UNL     1       6.486   3.520  -1.121  0.00  0.00    +0.000 A 
ATOM     34  C   UNL     1       6.182   4.414  -0.112  0.00  0.00    +0.000 A 
ATOM     35  C   UNL     1       5.848   3.949   1.146  0.00  0.00    +0.000 A 
ATOM     36  C   UNL     1       5.817   2.590   1.395  0.00  0.00    +0.004 A 
ENDBRANCH  30  31
ENDBRANCH  29  30
ENDBRANCH  28  29
ENDBRANCH  25  28
ENDBRANCH  14  22
TORSDOF 5
