REMARK  Name = m159
REMARK  7 active torsions:
REMARK  status: ('A' for Active; 'I' for Inactive)
REMARK    1  A    between atoms: C_1  and  C_2
REMARK    2  A    between atoms: C_18  and  C_19
REMARK    3  A    between atoms: C_22  and  O_23
REMARK    4  A    between atoms: O_23  and  C_24
REMARK    5  A    between atoms: C_24  and  C_25
REMARK    6  A    between atoms: C_25  and  C_26
REMARK    7  A    between atoms: C_25  and  C_27
REMARK                            x       y       z     vdW  Elec       q    Type
REMARK                         _______ _______ _______ _____ _____    ______ ____
ROOT
ATOM      1  C   UNL     1       4.342   2.216   2.440  0.00  0.00    +0.090 C 
ATOM      2  C   UNL     1       4.893   2.002   1.054  0.00  0.00    +0.152 A 
ATOM      3  N   UNL     1       4.388   1.174   0.115  0.00  0.00    -0.195 N 
ATOM      4  C   UNL     1       5.203   1.304  -0.983  0.00  0.00    +0.178 A 
ATOM      5  C   UNL     1       4.924   0.555  -2.142  0.00  0.00    +0.054 A 
ATOM      6  C   UNL     1       3.848  -0.276  -2.149  0.00  0.00    +0.054 A 
ATOM      7  C   UNL     1       3.029  -0.381  -1.010  0.00  0.00    +0.176 A 
ATOM      8  N   UNL     1       1.925  -1.238  -1.030  0.00  0.00    -0.198 N 
ATOM      9  C   UNL     1       1.058  -1.445  -0.016  0.00  0.00    +0.134 A 
ATOM     10  N   UNL     1       1.006  -0.891   1.262  0.00  0.00    -0.270 N 
ATOM     11  H   UNL     1       1.543  -0.116   1.492  0.00  0.00    +0.156 HD
ATOM     12  C   UNL     1       0.187  -1.464   2.169  0.00  0.00    +0.219 C 
ATOM     13  C   UNL     1      -0.547  -2.744   1.891  0.00  0.00    +0.109 C 
ATOM     14  C   UNL     1      -1.002  -2.825   0.433  0.00  0.00    +0.063 C 
ATOM     15  O   UNL     1       0.038  -0.926   3.246  0.00  0.00    -0.275 OA
ATOM     16  C   UNL     1       0.127  -2.354  -0.446  0.00  0.00    +0.020 A 
ATOM     17  C   UNL     1       0.446  -2.709  -1.749  0.00  0.00    +0.141 A 
ATOM     18  N   UNL     1       1.521  -2.045  -2.106  0.00  0.00    -0.171 NA
ATOM     19  N   UNL     1       6.145   2.176  -0.661  0.00  0.00    -0.128 NA
ATOM     20  N   UNL     1       3.288   0.316   0.071  0.00  0.00    -0.144 NA
ATOM     21  N   UNL     1       5.952   2.582   0.545  0.00  0.00    -0.132 NA
ENDROOT
BRANCH  14  22
ATOM     22  C   UNL     1      -2.202  -1.938   0.225  0.00  0.00    -0.039 A 
ATOM     23  C   UNL     1      -2.107  -0.581   0.473  0.00  0.00    +0.008 A 
ATOM     24  C   UNL     1      -3.204   0.236   0.278  0.00  0.00    +0.046 A 
ATOM     25  C   UNL     1      -4.404  -0.307  -0.157  0.00  0.00    +0.121 A 
ATOM     26  C   UNL     1      -4.498  -1.670  -0.399  0.00  0.00    +0.046 A 
ATOM     27  C   UNL     1      -3.397  -2.482  -0.207  0.00  0.00    +0.008 A 
BRANCH  25  28
ATOM     28  O   UNL     1      -5.486   0.493  -0.344  0.00  0.00    -0.492 OA
BRANCH  28  29
ATOM     29  C   UNL     1      -5.077   1.823  -0.016  0.00  0.00    +0.232 C 
BRANCH  29  30
ATOM     30  C   UNL     1      -6.256   2.780  -0.207  0.00  0.00    +0.020 C 
ATOM     31  C   UNL     1      -6.639   2.828  -1.687  0.00  0.00    +0.010 C 
ATOM     32  C   UNL     1      -5.856   4.181   0.263  0.00  0.00    +0.010 C 
ENDBRANCH  29  30
ENDBRANCH  28  29
ENDBRANCH  25  28
ENDBRANCH  14  22
TORSDOF 4
