REMARK  Name = m160
REMARK  12 active torsions:
REMARK  status: ('A' for Active; 'I' for Inactive)
REMARK    1  A    between atoms: C_1  and  C_2
REMARK    2  A    between atoms: C_2  and  O_3
REMARK    3  A    between atoms: O_3  and  C_4
REMARK    4  A    between atoms: C_4  and  C_6
REMARK    5  A    between atoms: C_7  and  S_8
REMARK    6  A    between atoms: S_8  and  N_11
REMARK    7  A    between atoms: C_15  and  C_16
REMARK    8  A    between atoms: C_21  and  C_22
REMARK    9  A    between atoms: C_27  and  C_28
REMARK   10  A    between atoms: N_29  and  C_30
REMARK   11  A    between atoms: C_30  and  C_31
REMARK   12  A    between atoms: C_32  and  C_33
REMARK                            x       y       z     vdW  Elec       q    Type
REMARK                         _______ _______ _______ _____ _____    ______ ____
ROOT
ATOM      1  S   UNL     1      -2.568   1.329   1.388  0.00  0.00    +0.063 S 
ATOM      2  O   UNL     1      -2.171   0.633   2.561  0.00  0.00    -0.153 OA
ATOM      3  O   UNL     1      -3.561   2.344   1.329  0.00  0.00    -0.153 OA
ENDROOT
BRANCH   1  10
ATOM      4  C   UNL     1      -2.694  -1.326   0.250  0.00  0.00    +0.106 A 
ATOM      5  C   UNL     1      -3.338  -1.898  -0.826  0.00  0.00    +0.032 A 
ATOM      6  C   UNL     1      -3.250  -3.345  -1.240  0.00  0.00    +0.064 C 
ATOM      7  N   UNL     1      -4.064  -0.945  -1.438  0.00  0.00    -0.346 N 
ATOM      8  C   UNL     1      -3.912   0.251  -0.799  0.00  0.00    +0.043 A 
ATOM      9  C   UNL     1      -4.568   1.547  -1.202  0.00  0.00    +0.065 C 
ATOM     10  C   UNL     1      -3.084   0.089   0.247  0.00  0.00    +0.140 A 
BRANCH   4  11
ATOM     11  C   UNL     1      -1.796  -1.995   1.204  0.00  0.00    +0.343 C 
ATOM     12  O   UNL     1      -2.247  -2.496   2.215  0.00  0.00    -0.245 OA
BRANCH  11  13
ATOM     13  O   UNL     1      -0.472  -2.052   0.956  0.00  0.00    -0.461 OA
BRANCH  13  15
ATOM     14  C   UNL     1       1.853  -2.636   1.382  0.00  0.00    +0.048 C 
ATOM     15  C   UNL     1       0.415  -2.712   1.897  0.00  0.00    +0.229 C 
ENDBRANCH  13  15
ENDBRANCH  11  13
ENDBRANCH   4  11
BRANCH   7  16
ATOM     16  C   UNL     1      -4.895  -1.159  -2.625  0.00  0.00    +0.118 C 
ATOM     17  C   UNL     1      -4.057  -0.925  -3.884  0.00  0.00    +0.027 C 
ENDBRANCH   7  16
ENDBRANCH   1  10
BRANCH   1  18
ATOM     18  N   UNL     1      -1.188   2.015   0.783  0.00  0.00    -0.176 NA
ATOM     19  C   UNL     1       0.133   1.472   1.131  0.00  0.00    +0.122 C 
ATOM     20  C   UNL     1       0.899   1.179  -0.169  0.00  0.00    +0.091 C 
ATOM     21  C   UNL     1       0.947   2.449  -1.022  0.00  0.00    +0.015 C 
ATOM     22  C   UNL     1      -0.477   2.873  -1.388  0.00  0.00    +0.018 C 
ATOM     23  C   UNL     1      -1.259   3.182  -0.108  0.00  0.00    +0.109 C 
BRANCH  20  24
ATOM     24  C   UNL     1       2.302   0.744   0.164  0.00  0.00    +0.223 C 
ATOM     25  N   UNL     1       3.165   0.438  -0.825  0.00  0.00    -0.270 N 
ATOM     26  H   UNL     1       2.862   0.425  -1.746  0.00  0.00    +0.156 HD
ATOM     27  C   UNL     1       4.494   0.141  -0.524  0.00  0.00    +0.125 A 
ATOM     28  N   UNL     1       4.878   0.066   0.741  0.00  0.00    -0.240 NA
ATOM     29  C   UNL     1       6.124  -0.218   1.069  0.00  0.00    +0.113 A 
ATOM     30  C   UNL     1       7.080  -0.437   0.097  0.00  0.00    +0.023 A 
ATOM     31  C   UNL     1       6.719  -0.362  -1.241  0.00  0.00    -0.046 A 
ATOM     32  C   UNL     1       7.736  -0.595  -2.329  0.00  0.00    +0.044 C 
ATOM     33  C   UNL     1       5.404  -0.068  -1.554  0.00  0.00    +0.047 A 
ATOM     34  O   UNL     1       2.655   0.668   1.322  0.00  0.00    -0.275 OA
ENDBRANCH  20  24
ENDBRANCH   1  18
TORSDOF 7
