REMARK  Name = m161
REMARK  10 active torsions:
REMARK  status: ('A' for Active; 'I' for Inactive)
REMARK    1  A    between atoms: C_1  and  C_2
REMARK    2  A    between atoms: C_2  and  O_3
REMARK    3  A    between atoms: O_3  and  C_4
REMARK    4  A    between atoms: C_4  and  C_6
REMARK    5  A    between atoms: C_8  and  C_9
REMARK    6  A    between atoms: N_15  and  C_16
REMARK    7  A    between atoms: C_16  and  C_17
REMARK    8  A    between atoms: C_19  and  C_20
REMARK    9  A    between atoms: C_27  and  C_28
REMARK   10  A    between atoms: N_31  and  C_32
REMARK                            x       y       z     vdW  Elec       q    Type
REMARK                         _______ _______ _______ _____ _____    ______ ____
ROOT
ATOM      1  C   UNL     1       3.334  -0.148  -0.617  0.00  0.00    +0.077 A 
ATOM      2  C   UNL     1       2.224  -0.690   0.050  0.00  0.00    +0.096 A 
ATOM      3  C   UNL     1       1.267   0.156   0.784  0.00  0.00    +0.267 A 
ATOM      4  N   UNL     1       0.219  -0.446   1.390  0.00  0.00    -0.254 N 
ATOM      5  C   UNL     1       0.051  -1.776   1.324  0.00  0.00    +0.334 A 
ATOM      6  N   UNL     1       0.899  -2.588   0.672  0.00  0.00    -0.281 N 
ATOM      7  C   UNL     1       0.645  -4.031   0.648  0.00  0.00    +0.155 C 
ATOM      8  O   UNL     1      -0.909  -2.268   1.885  0.00  0.00    -0.246 OA
ATOM      9  O   UNL     1       1.416   1.361   0.844  0.00  0.00    -0.267 OA
ATOM     10  C   UNL     1       2.003  -2.077   0.012  0.00  0.00    +0.151 A 
ATOM     11  N   UNL     1       2.843  -2.865  -0.638  0.00  0.00    -0.234 NA
ATOM     12  C   UNL     1       3.897  -2.388  -1.269  0.00  0.00    +0.041 A 
ATOM     13  C   UNL     1       4.815  -3.341  -1.991  0.00  0.00    +0.065 C 
ATOM     14  C   UNL     1       4.183  -1.033  -1.285  0.00  0.00    +0.039 A 
ENDROOT
BRANCH   1  15
ATOM     15  C   UNL     1       3.600   1.309  -0.606  0.00  0.00    +0.340 C 
ATOM     16  O   UNL     1       2.728   2.087  -0.936  0.00  0.00    -0.245 OA
BRANCH  15  17
ATOM     17  O   UNL     1       4.808   1.771  -0.230  0.00  0.00    -0.461 OA
BRANCH  17  19
ATOM     18  C   UNL     1       6.505   3.452   0.243  0.00  0.00    +0.048 C 
ATOM     19  C   UNL     1       5.068   3.199  -0.219  0.00  0.00    +0.229 C 
ENDBRANCH  17  19
ENDBRANCH  15  17
ENDBRANCH   1  15
BRANCH   4  20
ATOM     20  C   UNL     1      -0.751   0.368   2.128  0.00  0.00    +0.188 C 
BRANCH  20  21
ATOM     21  C   UNL     1      -1.855   0.801   1.198  0.00  0.00    +0.103 A 
ATOM     22  C   UNL     1      -1.875   1.929   0.464  0.00  0.00    +0.127 A 
ATOM     23  C   UNL     1      -0.800   2.983   0.416  0.00  0.00    +0.088 C 
ATOM     24  O   UNL     1      -3.033   1.935  -0.226  0.00  0.00    -0.440 OA
ATOM     25  C   UNL     1      -3.708   0.819   0.098  0.00  0.00    +0.228 A 
ATOM     26  N   UNL     1      -2.994   0.135   0.960  0.00  0.00    -0.212 NA
BRANCH  25  27
ATOM     27  C   UNL     1      -5.034   0.429  -0.427  0.00  0.00    +0.037 A 
ATOM     28  C   UNL     1      -5.629  -0.763  -0.013  0.00  0.00    +0.013 A 
ATOM     29  C   UNL     1      -6.869  -1.119  -0.503  0.00  0.00    +0.001 A 
ATOM     30  C   UNL     1      -7.517  -0.301  -1.412  0.00  0.00    +0.000 A 
ATOM     31  C   UNL     1      -6.930   0.879  -1.832  0.00  0.00    +0.001 A 
ATOM     32  C   UNL     1      -5.693   1.249  -1.345  0.00  0.00    +0.013 A 
ENDBRANCH  25  27
ENDBRANCH  20  21
ENDBRANCH   4  20
TORSDOF 6
