REMARK  Name = m162
REMARK  7 active torsions:
REMARK  status: ('A' for Active; 'I' for Inactive)
REMARK    1  A    between atoms: C_1  and  N_2
REMARK    2  A    between atoms: C_5  and  C_6
REMARK    3  A    between atoms: C_12  and  C_13
REMARK    4  A    between atoms: C_14  and  C_15
REMARK    5  A    between atoms: N_17  and  C_18
REMARK    6  A    between atoms: C_18  and  C_19
REMARK    7  A    between atoms: C_19  and  O_20
REMARK                            x       y       z     vdW  Elec       q    Type
REMARK                         _______ _______ _______ _____ _____    ______ ____
ROOT
ATOM      1  C   UNL     1       2.683  -0.095  -0.834  0.00  0.00    +0.247 C 
ATOM      2  N   UNL     1       1.570   0.312  -0.192  0.00  0.00    -0.293 N 
ATOM      3  C   UNL     1       0.234  -0.143  -0.615  0.00  0.00    +0.144 C 
ATOM      4  C   UNL     1      -0.532  -0.592   0.639  0.00  0.00    +0.167 C 
ATOM      5  O   UNL     1      -0.570   0.478   1.582  0.00  0.00    -0.369 OA
ATOM      6  C   UNL     1       0.755   0.671   2.074  0.00  0.00    +0.179 C 
ATOM      7  C   UNL     1       1.641   1.232   0.956  0.00  0.00    +0.136 C 
ATOM      8  O   UNL     1       2.609  -0.942  -1.702  0.00  0.00    -0.270 OA
ENDROOT
BRANCH   1  16
ATOM      9  C   UNL     1       7.398  -1.954  -0.103  0.00  0.00    +0.127 C 
ATOM     10  N   UNL     1       7.481  -0.507   0.110  0.00  0.00    -0.332 N 
ATOM     11  H   UNL     1       8.329  -0.099   0.341  0.00  0.00    +0.147 HD
ATOM     12  C   UNL     1       6.343   0.281  -0.021  0.00  0.00    +0.119 A 
ATOM     13  N   UNL     1       6.424   1.587   0.177  0.00  0.00    -0.240 NA
ATOM     14  C   UNL     1       5.375   2.377   0.060  0.00  0.00    +0.113 A 
ATOM     15  C   UNL     1       4.135   1.869  -0.267  0.00  0.00    +0.033 A 
ATOM     16  C   UNL     1       3.997   0.492  -0.481  0.00  0.00    +0.042 A 
ATOM     17  C   UNL     1       5.129  -0.313  -0.354  0.00  0.00    +0.056 A 
ENDBRANCH   1  16
BRANCH   4  18
ATOM     18  C   UNL     1      -1.939  -0.973   0.256  0.00  0.00    +0.011 A 
ATOM     19  C   UNL     1      -2.309  -2.328   0.191  0.00  0.00    +0.014 A 
ATOM     20  C   UNL     1      -3.654  -2.577  -0.174  0.00  0.00    +0.109 A 
ATOM     21  N   UNL     1      -4.148  -3.791  -0.274  0.00  0.00    -0.248 NA
ATOM     22  C   UNL     1      -3.406  -4.853  -0.030  0.00  0.00    +0.112 A 
ATOM     23  C   UNL     1      -2.076  -4.712   0.340  0.00  0.00    +0.020 A 
ATOM     24  S   UNL     1      -4.320  -0.948  -0.415  0.00  0.00    -0.064 S 
ATOM     25  C   UNL     1      -1.515  -3.474   0.458  0.00  0.00    +0.012 A 
ATOM     26  C   UNL     1      -2.852  -0.008  -0.032  0.00  0.00    +0.082 A 
BRANCH  26  27
ATOM     27  C   UNL     1      -2.673   1.451  -0.030  0.00  0.00    +0.251 C 
ATOM     28  N   UNL     1      -3.706   2.257  -0.347  0.00  0.00    -0.309 N 
ATOM     29  H   UNL     1      -4.567   1.874  -0.577  0.00  0.00    +0.149 HD
ATOM     30  O   UNL     1      -1.593   1.931   0.258  0.00  0.00    -0.270 OA
BRANCH  28  31
ATOM     31  C   UNL     1      -3.528   3.711  -0.345  0.00  0.00    +0.132 C 
BRANCH  31  32
ATOM     32  C   UNL     1      -4.843   4.386  -0.737  0.00  0.00    +0.174 C 
BRANCH  32  33
ATOM     33  O   UNL     1      -5.830   4.125   0.263  0.00  0.00    -0.393 OA
ATOM     34  H   UNL     1      -6.641   4.567  -0.022  0.00  0.00    +0.209 HD
ENDBRANCH  32  33
ENDBRANCH  31  32
ENDBRANCH  28  31
ENDBRANCH  26  27
ENDBRANCH   4  18
TORSDOF 6
