REMARK  Name = m163
REMARK  8 active torsions:
REMARK  status: ('A' for Active; 'I' for Inactive)
REMARK    1  A    between atoms: C_1  and  O_2
REMARK    2  A    between atoms: O_2  and  C_3
REMARK    3  A    between atoms: C_6  and  N_7
REMARK    4  A    between atoms: C_8  and  C_10
REMARK    5  A    between atoms: C_15  and  N_16
REMARK    6  A    between atoms: N_16  and  C_17
REMARK    7  A    between atoms: N_16  and  S_18
REMARK    8  A    between atoms: S_18  and  C_21
REMARK                            x       y       z     vdW  Elec       q    Type
REMARK                         _______ _______ _______ _____ _____    ______ ____
ROOT
ATOM      1  N   UNL     1       0.309  -0.163   1.431  0.00  0.00    -0.205 N 
ATOM      2  C   UNL     1       0.629   0.331   2.773  0.00  0.00    +0.157 C 
ENDROOT
BRANCH   1   4
ATOM      3  C   UNL     1       1.621  -1.990   0.536  0.00  0.00    +0.060 A 
ATOM      4  C   UNL     1       0.445  -1.513   1.137  0.00  0.00    +0.063 A 
ATOM      5  C   UNL     1      -0.586  -2.399   1.427  0.00  0.00    +0.025 A 
ATOM      6  C   UNL     1      -0.448  -3.740   1.134  0.00  0.00    +0.002 A 
ATOM      7  C   UNL     1       0.714  -4.214   0.546  0.00  0.00    +0.001 A 
ATOM      8  C   UNL     1       1.745  -3.351   0.246  0.00  0.00    +0.015 A 
BRANCH   3  11
ATOM      9  N   UNL     1       3.849  -1.523  -0.354  0.00  0.00    -0.281 N 
ATOM     10  H   UNL     1       3.909  -2.451  -0.629  0.00  0.00    +0.155 HD
ATOM     11  C   UNL     1       2.720  -1.061   0.218  0.00  0.00    +0.250 C 
ATOM     12  O   UNL     1       2.608   0.124   0.472  0.00  0.00    -0.270 OA
BRANCH   9  16
ATOM     13  C   UNL     1       7.089   1.035  -0.939  0.00  0.00    +0.120 A 
ATOM     14  C   UNL     1       6.269   1.197   0.168  0.00  0.00    +0.047 A 
ATOM     15  C   UNL     1       5.192   0.354   0.359  0.00  0.00    +0.027 A 
ATOM     16  C   UNL     1       4.938  -0.664  -0.550  0.00  0.00    +0.034 A 
ATOM     17  C   UNL     1       5.763  -0.829  -1.655  0.00  0.00    +0.027 A 
ATOM     18  C   UNL     1       6.836   0.018  -1.848  0.00  0.00    +0.047 A 
BRANCH  13  20
ATOM     19  C   UNL     1       8.143   2.796  -0.042  0.00  0.00    +0.277 C 
ATOM     20  O   UNL     1       8.146   1.869  -1.130  0.00  0.00    -0.495 OA
ENDBRANCH  13  20
ENDBRANCH   9  16
ENDBRANCH   3  11
ENDBRANCH   1   4
BRANCH   1  21
ATOM     21  S   UNL     1      -0.215   0.889   0.264  0.00  0.00    +0.075 S 
ATOM     22  O   UNL     1       0.073   0.263  -0.978  0.00  0.00    -0.150 OA
ATOM     23  O   UNL     1       0.248   2.172   0.665  0.00  0.00    -0.150 OA
BRANCH  21  24
ATOM     24  C   UNL     1      -1.972   0.960   0.370  0.00  0.00    +0.111 A 
ATOM     25  C   UNL     1      -2.744   0.089  -0.370  0.00  0.00    +0.054 A 
ATOM     26  C   UNL     1      -4.138   0.129  -0.292  0.00  0.00    +0.057 A 
ATOM     27  N   UNL     1      -4.837  -0.792  -1.067  0.00  0.00    -0.284 N 
ATOM     28  H   UNL     1      -4.487  -1.696  -1.105  0.00  0.00    +0.155 HD
ATOM     29  C   UNL     1      -5.944  -0.539  -1.761  0.00  0.00    +0.226 C 
ATOM     30  C   UNL     1      -6.593   0.821  -1.728  0.00  0.00    +0.192 C 
ATOM     31  C   UNL     1      -7.017   1.107  -0.311  0.00  0.00    +0.226 C 
ATOM     32  N   UNL     1      -6.126   1.185   0.673  0.00  0.00    -0.284 N 
ATOM     33  H   UNL     1      -6.466   1.340   1.568  0.00  0.00    +0.155 HD
ATOM     34  O   UNL     1      -8.193   1.270  -0.063  0.00  0.00    -0.275 OA
ATOM     35  O   UNL     1      -6.439  -1.419  -2.433  0.00  0.00    -0.275 OA
ATOM     36  C   UNL     1      -4.747   1.063   0.530  0.00  0.00    +0.055 A 
ATOM     37  C   UNL     1      -3.955   1.944   1.270  0.00  0.00    +0.027 A 
ATOM     38  C   UNL     1      -2.580   1.893   1.190  0.00  0.00    +0.031 A 
ENDBRANCH  21  24
ENDBRANCH   1  21
TORSDOF 6
