REMARK  Name = m164
REMARK  6 active torsions:
REMARK  status: ('A' for Active; 'I' for Inactive)
REMARK    1  A    between atoms: C_1  and  C_2
REMARK    2  A    between atoms: C_3  and  C_4
REMARK    3  A    between atoms: C_6  and  C_7
REMARK    4  A    between atoms: N_20  and  C_21
REMARK    5  A    between atoms: C_21  and  C_22
REMARK    6  A    between atoms: N_24  and  C_25
REMARK                            x       y       z     vdW  Elec       q    Type
REMARK                         _______ _______ _______ _____ _____    ______ ____
ROOT
ATOM      1  C   UNL     1       0.536   1.234  -1.731  0.00  0.00    +0.046 C 
ATOM      2  C   UNL     1       0.571  -0.033  -0.916  0.00  0.00    -0.017 A 
ATOM      3  C   UNL     1      -0.598  -0.778  -0.728  0.00  0.00    +0.076 A 
ATOM      4  C   UNL     1      -0.461  -1.951   0.046  0.00  0.00    +0.116 A 
ATOM      5  N   UNL     1      -1.491  -2.749   0.297  0.00  0.00    -0.230 NA
ATOM      6  C   UNL     1      -2.684  -2.492  -0.165  0.00  0.00    +0.203 A 
ATOM      7  N   UNL     1      -2.937  -1.397  -0.925  0.00  0.00    -0.290 N 
ATOM      8  S   UNL     1       1.261  -1.956   0.479  0.00  0.00    -0.063 S 
ATOM      9  C   UNL     1      -1.963  -0.521  -1.239  0.00  0.00    +0.263 A 
ATOM     10  O   UNL     1      -2.200   0.459  -1.923  0.00  0.00    -0.267 OA
ATOM     11  C   UNL     1       1.740  -0.454  -0.357  0.00  0.00    +0.082 A 
ENDROOT
BRANCH  11  12
ATOM     12  C   UNL     1       3.066   0.174  -0.424  0.00  0.00    +0.266 A 
ATOM     13  O   UNL     1       3.385   1.308  -1.073  0.00  0.00    -0.332 OA
ATOM     14  N   UNL     1       4.564   1.550  -0.925  0.00  0.00    -0.056 NA
ATOM     15  C   UNL     1       5.132   0.624  -0.195  0.00  0.00    +0.202 A 
ATOM     16  N   UNL     1       4.180  -0.271   0.137  0.00  0.00    -0.187 NA
BRANCH  15  17
ATOM     17  C   UNL     1       6.563   0.570   0.197  0.00  0.00    +0.023 A 
ATOM     18  C   UNL     1       7.032  -0.478   0.986  0.00  0.00    +0.014 A 
ATOM     19  C   UNL     1       8.364  -0.528   1.343  0.00  0.00    +0.039 A 
ATOM     20  C   UNL     1       9.232   0.469   0.926  0.00  0.00    +0.123 A 
ATOM     21  F   UNL     1      10.534   0.419   1.283  0.00  0.00    -0.205 F 
ATOM     22  C   UNL     1       8.769   1.516   0.146  0.00  0.00    +0.039 A 
ATOM     23  C   UNL     1       7.439   1.570  -0.220  0.00  0.00    +0.014 A 
ENDBRANCH  15  17
ENDBRANCH  11  12
BRANCH   7  24
ATOM     24  C   UNL     1      -4.298  -1.163  -1.414  0.00  0.00    +0.221 C 
BRANCH  24  25
ATOM     25  C   UNL     1      -5.058  -0.335  -0.409  0.00  0.00    +0.233 C 
ATOM     26  N   UNL     1      -6.339   0.006  -0.648  0.00  0.00    -0.311 N 
ATOM     27  H   UNL     1      -6.773  -0.280  -1.468  0.00  0.00    +0.149 HD
ATOM     28  O   UNL     1      -4.515   0.023   0.615  0.00  0.00    -0.274 OA
BRANCH  26  29
ATOM     29  C   UNL     1      -7.077   0.811   0.329  0.00  0.00    +0.073 C 
ATOM     30  C   UNL     1      -7.675  -0.107   1.397  0.00  0.00    +0.022 C 
ATOM     31  C   UNL     1      -8.446   0.733   2.417  0.00  0.00    +0.002 C 
ATOM     32  C   UNL     1      -9.570   1.491   1.709  0.00  0.00    +0.000 C 
ATOM     33  C   UNL     1      -8.973   2.409   0.640  0.00  0.00    +0.002 C 
ATOM     34  C   UNL     1      -8.202   1.569  -0.380  0.00  0.00    +0.022 C 
ENDBRANCH  26  29
ENDBRANCH  24  25
ENDBRANCH   7  24
TORSDOF 5
