REMARK  Name = m165
REMARK  7 active torsions:
REMARK  status: ('A' for Active; 'I' for Inactive)
REMARK    1  A    between atoms: C_1  and  C_2
REMARK    2  A    between atoms: C_6  and  N_7
REMARK    3  A    between atoms: C_8  and  C_10
REMARK    4  A    between atoms: C_10  and  N_11
REMARK    5  A    between atoms: C_16  and  C_17
REMARK    6  A    between atoms: C_19  and  C_20
REMARK    7  A    between atoms: C_28  and  C_29
REMARK                            x       y       z     vdW  Elec       q    Type
REMARK                         _______ _______ _______ _____ _____    ______ ____
ROOT
ATOM      1  N   UNL     1       2.359  -1.785   0.562  0.00  0.00    -0.290 N 
ATOM      2  C   UNL     1       1.404  -0.982   1.071  0.00  0.00    +0.263 A 
ATOM      3  O   UNL     1       1.652  -0.219   1.988  0.00  0.00    -0.267 OA
ATOM      4  C   UNL     1       0.047  -1.047   0.484  0.00  0.00    +0.076 A 
ATOM      5  C   UNL     1      -0.104  -1.978  -0.568  0.00  0.00    +0.116 A 
ATOM      6  S   UNL     1      -1.811  -1.805  -1.023  0.00  0.00    -0.063 S 
ATOM      7  C   UNL     1      -2.266  -0.544   0.156  0.00  0.00    +0.082 A 
ATOM      8  N   UNL     1       0.906  -2.727  -0.991  0.00  0.00    -0.230 NA
ATOM      9  C   UNL     1      -1.101  -0.324   0.827  0.00  0.00    -0.017 A 
ATOM     10  C   UNL     1      -1.048   0.694   1.936  0.00  0.00    +0.046 C 
ATOM     11  C   UNL     1       2.093  -2.642  -0.454  0.00  0.00    +0.203 A 
ENDROOT
BRANCH   7  12
ATOM     12  C   UNL     1      -3.572   0.098   0.353  0.00  0.00    +0.266 A 
ATOM     13  O   UNL     1      -3.872   1.042   1.261  0.00  0.00    -0.332 OA
ATOM     14  N   UNL     1      -5.038   1.360   1.155  0.00  0.00    -0.056 NA
ATOM     15  C   UNL     1      -5.614   0.672   0.203  0.00  0.00    +0.202 A 
ATOM     16  N   UNL     1      -4.683  -0.147  -0.325  0.00  0.00    -0.187 NA
BRANCH  15  17
ATOM     17  C   UNL     1      -7.035   0.774  -0.218  0.00  0.00    +0.025 A 
ATOM     18  C   UNL     1      -7.533  -0.015  -1.258  0.00  0.00    +0.031 A 
ATOM     19  C   UNL     1      -8.861   0.107  -1.614  0.00  0.00    +0.111 A 
ATOM     20  N   UNL     1      -9.652   0.962  -0.995  0.00  0.00    -0.263 NA
ATOM     21  C   UNL     1      -9.219   1.730  -0.013  0.00  0.00    +0.111 A 
ATOM     22  C   UNL     1      -7.907   1.666   0.410  0.00  0.00    +0.031 A 
ENDBRANCH  15  17
ENDBRANCH   7  12
BRANCH   1  23
ATOM     23  C   UNL     1       3.712  -1.734   1.123  0.00  0.00    +0.222 C 
BRANCH  23  26
ATOM     24  N   UNL     1       5.812  -0.492   0.719  0.00  0.00    -0.284 N 
ATOM     25  H   UNL     1       6.235  -1.047   1.393  0.00  0.00    +0.155 HD
ATOM     26  C   UNL     1       4.528  -0.712   0.375  0.00  0.00    +0.237 C 
ATOM     27  O   UNL     1       4.029  -0.086  -0.537  0.00  0.00    -0.274 OA
BRANCH  24  31
ATOM     28  C   UNL     1      10.089   1.247  -0.972  0.00  0.00    +0.044 C 
ATOM     29  C   UNL     1       8.610   1.405  -0.729  0.00  0.00    -0.049 A 
ATOM     30  C   UNL     1       7.898   0.387  -0.126  0.00  0.00    +0.026 A 
ATOM     31  C   UNL     1       6.536   0.535   0.103  0.00  0.00    +0.034 A 
ATOM     32  C   UNL     1       5.893   1.703  -0.285  0.00  0.00    +0.023 A 
ATOM     33  C   UNL     1       6.610   2.715  -0.892  0.00  0.00    +0.002 A 
ATOM     34  C   UNL     1       7.966   2.567  -1.114  0.00  0.00    +0.003 A 
ENDBRANCH  24  31
ENDBRANCH  23  26
ENDBRANCH   1  23
TORSDOF 5
