REMARK  Name = m166
REMARK  5 active torsions:
REMARK  status: ('A' for Active; 'I' for Inactive)
REMARK    1  A    between atoms: C_1  and  C_2
REMARK    2  A    between atoms: C_8  and  N_9
REMARK    3  A    between atoms: N_9  and  C_10
REMARK    4  A    between atoms: C_10  and  C_11
REMARK    5  A    between atoms: C_16  and  C_17
REMARK                            x       y       z     vdW  Elec       q    Type
REMARK                         _______ _______ _______ _____ _____    ______ ____
ROOT
ATOM      1  N   UNL     1      -0.179  -1.079   0.096  0.00  0.00    -0.307 NA
ATOM      2  H   UNL     1      -0.044  -1.946   0.593  0.00  0.00    +0.123 HD
ENDROOT
BRANCH   1   9
ATOM      3  C   UNL     1       6.540   0.216   1.422  0.00  0.00    +0.085 C 
ATOM      4  C   UNL     1       5.285   0.025   0.609  0.00  0.00    +0.116 C 
ATOM      5  N   UNL     1       4.580  -1.063   0.511  0.00  0.00    -0.180 NA
ATOM      6  N   UNL     1       3.529  -0.823  -0.322  0.00  0.00    -0.338 NA
ATOM      7  H   UNL     1       3.602  -1.427  -1.127  0.00  0.00    +0.164 HD
ATOM      8  C   UNL     1       2.257  -1.096   0.360  0.00  0.00    +0.136 C 
ATOM      9  C   UNL     1       1.091  -0.777  -0.579  0.00  0.00    +0.074 C 
ATOM     10  C   UNL     1       1.133   0.711  -0.950  0.00  0.00    +0.028 C 
ATOM     11  C   UNL     1       2.507   1.012  -1.570  0.00  0.00    +0.071 C 
ATOM     12  C   UNL     1       3.555   0.363  -0.697  0.00  0.00    +0.076 C 
ATOM     13  N   UNL     1       4.666   0.964  -0.177  0.00  0.00    -0.292 N 
ATOM     14  H   UNL     1       4.959   1.875  -0.333  0.00  0.00    +0.154 HD
ENDBRANCH   1   9
BRANCH   1  15
ATOM     15  C   UNL     1      -1.165  -1.346  -0.959  0.00  0.00    +0.120 C 
BRANCH  15  16
ATOM     16  C   UNL     1      -2.498  -1.665  -0.332  0.00  0.00    +0.012 A 
ATOM     17  C   UNL     1      -3.422  -0.728   0.175  0.00  0.00    +0.103 A 
ATOM     18  N   UNL     1      -4.462  -1.394   0.635  0.00  0.00    -0.173 NA
ATOM     19  N   UNL     1      -4.223  -2.761   0.441  0.00  0.00    -0.284 N 
ATOM     20  H   UNL     1      -4.821  -3.484   0.689  0.00  0.00    +0.188 HD
ATOM     21  C   UNL     1      -3.017  -2.898  -0.152  0.00  0.00    +0.110 A 
BRANCH  17  22
ATOM     22  C   UNL     1      -3.257   0.742   0.183  0.00  0.00    +0.040 A 
ATOM     23  S   UNL     1      -1.773   1.706   0.419  0.00  0.00    -0.095 S 
ATOM     24  C   UNL     1      -2.500   3.329   0.272  0.00  0.00    +0.046 A 
ATOM     25  C   UNL     1      -3.809   3.037   0.063  0.00  0.00    +0.008 A 
ATOM     26  C   UNL     1      -4.203   1.717   0.016  0.00  0.00    +0.018 A 
ENDBRANCH  17  22
ENDBRANCH  15  16
ENDBRANCH   1  15
TORSDOF 4
