REMARK  Name = m167
REMARK  8 active torsions:
REMARK  status: ('A' for Active; 'I' for Inactive)
REMARK    1  A    between atoms: C_1  and  N_2
REMARK    2  A    between atoms: C_5  and  C_6
REMARK    3  A    between atoms: C_11  and  C_12
REMARK    4  A    between atoms: C_13  and  C_14
REMARK    5  A    between atoms: N_16  and  C_17
REMARK    6  A    between atoms: C_17  and  C_18
REMARK    7  A    between atoms: C_18  and  O_19
REMARK    8  A    between atoms: O_19  and  C_20
REMARK                            x       y       z     vdW  Elec       q    Type
REMARK                         _______ _______ _______ _____ _____    ______ ____
ROOT
ATOM      1  C   UNL     1      -1.600   0.897   0.174  0.00  0.00    -0.014 A 
ATOM      2  C   UNL     1      -1.595   2.293   0.012  0.00  0.00    +0.012 A 
ATOM      3  C   UNL     1      -2.862   2.889  -0.202  0.00  0.00    +0.109 A 
ATOM      4  N   UNL     1      -3.017   4.181  -0.375  0.00  0.00    -0.248 NA
ATOM      5  C   UNL     1      -1.984   5.002  -0.362  0.00  0.00    +0.112 A 
ATOM      6  C   UNL     1      -0.701   4.513  -0.165  0.00  0.00    +0.020 A 
ATOM      7  S   UNL     1      -3.975   1.504  -0.155  0.00  0.00    -0.064 S 
ATOM      8  C   UNL     1      -0.485   3.179   0.018  0.00  0.00    +0.012 A 
ATOM      9  C   UNL     1      -2.775   0.215   0.130  0.00  0.00    +0.080 A 
ENDROOT
BRANCH   1  13
ATOM     10  C   UNL     1       3.164  -0.082  -0.776  0.00  0.00    +0.247 C 
ATOM     11  N   UNL     1       2.033   0.226  -0.110  0.00  0.00    -0.297 N 
ATOM     12  C   UNL     1       0.715   0.468  -0.723  0.00  0.00    +0.116 C 
ATOM     13  C   UNL     1      -0.306   0.158   0.403  0.00  0.00    +0.040 C 
ATOM     14  C   UNL     1       0.434   0.707   1.651  0.00  0.00    +0.029 C 
ATOM     15  C   UNL     1       1.912   0.382   1.347  0.00  0.00    +0.109 C 
ATOM     16  O   UNL     1       3.171  -0.090  -1.991  0.00  0.00    -0.270 OA
BRANCH  10  24
ATOM     17  C   UNL     1       7.817  -1.808  -2.040  0.00  0.00    +0.127 C 
ATOM     18  N   UNL     1       7.815  -1.634  -0.586  0.00  0.00    -0.332 N 
ATOM     19  H   UNL     1       8.611  -1.843  -0.072  0.00  0.00    +0.147 HD
ATOM     20  C   UNL     1       6.673  -1.171   0.058  0.00  0.00    +0.119 A 
ATOM     21  N   UNL     1       6.678  -1.022   1.373  0.00  0.00    -0.240 NA
ATOM     22  C   UNL     1       5.622  -0.581   2.029  0.00  0.00    +0.113 A 
ATOM     23  C   UNL     1       4.455  -0.264   1.366  0.00  0.00    +0.033 A 
ATOM     24  C   UNL     1       4.399  -0.410  -0.025  0.00  0.00    +0.042 A 
ATOM     25  C   UNL     1       5.536  -0.874  -0.687  0.00  0.00    +0.056 A 
ENDBRANCH  10  24
ENDBRANCH   1  13
BRANCH   9  26
ATOM     26  C   UNL     1      -3.002  -1.230   0.280  0.00  0.00    +0.251 C 
ATOM     27  N   UNL     1      -4.258  -1.714   0.316  0.00  0.00    -0.309 N 
ATOM     28  H   UNL     1      -5.014  -1.110   0.243  0.00  0.00    +0.149 HD
ATOM     29  O   UNL     1      -2.054  -1.987   0.371  0.00  0.00    -0.270 OA
BRANCH  27  30
ATOM     30  C   UNL     1      -4.484  -3.154   0.466  0.00  0.00    +0.132 C 
BRANCH  30  31
ATOM     31  C   UNL     1      -5.988  -3.436   0.478  0.00  0.00    +0.178 C 
BRANCH  31  32
ATOM     32  O   UNL     1      -6.547  -3.096  -0.792  0.00  0.00    -0.381 OA
ATOM     33  C   UNL     1      -7.945  -3.380  -0.718  0.00  0.00    +0.194 C 
ENDBRANCH  31  32
ENDBRANCH  30  31
ENDBRANCH  27  30
ENDBRANCH   9  26
TORSDOF 6
