REMARK  Name = m168
REMARK  9 active torsions:
REMARK  status: ('A' for Active; 'I' for Inactive)
REMARK    1  A    between atoms: C_1  and  C_2
REMARK    2  A    between atoms: C_2  and  N_3
REMARK    3  A    between atoms: C_5  and  S_6
REMARK    4  A    between atoms: S_6  and  N_9
REMARK    5  A    between atoms: C_12  and  C_13
REMARK    6  A    between atoms: C_14  and  C_15
REMARK    7  A    between atoms: N_17  and  C_18
REMARK    8  A    between atoms: N_17  and  C_19
REMARK    9  A    between atoms: C_28  and  C_29
REMARK                            x       y       z     vdW  Elec       q    Type
REMARK                         _______ _______ _______ _____ _____    ______ ____
ROOT
ATOM      1  N   UNL     1       0.997  -1.037  -0.539  0.00  0.00    -0.176 NA
ATOM      2  C   UNL     1      -0.132  -0.513   0.252  0.00  0.00    +0.117 C 
ATOM      3  C   UNL     1      -0.952   0.341  -0.751  0.00  0.00    +0.038 C 
ATOM      4  C   UNL     1      -0.825  -0.499  -2.049  0.00  0.00    +0.026 C 
ATOM      5  C   UNL     1       0.608  -1.065  -1.956  0.00  0.00    +0.110 C 
ENDROOT
BRANCH   3   6
ATOM      6  C   UNL     1      -2.390   0.449  -0.315  0.00  0.00    -0.015 A 
ATOM      7  C   UNL     1      -2.996   1.711  -0.192  0.00  0.00    +0.012 A 
ATOM      8  C   UNL     1      -4.351   1.701   0.219  0.00  0.00    +0.109 A 
ATOM      9  N   UNL     1      -5.053   2.801   0.375  0.00  0.00    -0.248 NA
ATOM     10  C   UNL     1      -4.524   3.988   0.147  0.00  0.00    +0.112 A 
ATOM     11  C   UNL     1      -3.204   4.101  -0.265  0.00  0.00    +0.020 A 
ATOM     12  S   UNL     1      -4.702  -0.029   0.422  0.00  0.00    -0.064 S 
ATOM     13  C   UNL     1      -2.432   2.990  -0.442  0.00  0.00    +0.012 A 
ATOM     14  C   UNL     1      -3.103  -0.674  -0.034  0.00  0.00    +0.080 A 
BRANCH  14  15
ATOM     15  C   UNL     1      -2.663  -2.075  -0.092  0.00  0.00    +0.253 C 
ATOM     16  N   UNL     1      -2.242  -2.696   1.028  0.00  0.00    -0.303 N 
ATOM     17  C   UNL     1      -2.342  -2.019   2.323  0.00  0.00    +0.132 C 
ATOM     18  C   UNL     1      -1.685  -4.049   0.950  0.00  0.00    +0.132 C 
ATOM     19  O   UNL     1      -2.679  -2.675  -1.151  0.00  0.00    -0.269 OA
ENDBRANCH  14  15
ENDBRANCH   3   6
BRANCH   1  20
ATOM     20  S   UNL     1       2.459  -1.522   0.070  0.00  0.00    +0.064 S 
ATOM     21  O   UNL     1       2.225  -1.828   1.438  0.00  0.00    -0.153 OA
ATOM     22  O   UNL     1       3.001  -2.415  -0.892  0.00  0.00    -0.153 OA
BRANCH  20  27
ATOM     23  N   UNL     1       4.795   1.525   0.740  0.00  0.00    -0.270 N 
ATOM     24  N   UNL     1       4.740   1.555  -0.659  0.00  0.00    -0.174 NA
ATOM     25  C   UNL     1       3.981   0.568  -1.060  0.00  0.00    +0.086 A 
ATOM     26  C   UNL     1       3.653   0.230  -2.491  0.00  0.00    +0.069 C 
ATOM     27  C   UNL     1       3.521  -0.116   0.070  0.00  0.00    +0.146 A 
ATOM     28  C   UNL     1       4.036   0.493   1.163  0.00  0.00    +0.137 A 
BRANCH  23  30
ATOM     29  C   UNL     1       7.011   2.467   1.172  0.00  0.00    +0.029 C 
ATOM     30  C   UNL     1       5.540   2.454   1.593  0.00  0.00    +0.140 C 
ENDBRANCH  23  30
ENDBRANCH  20  27
ENDBRANCH   1  20
TORSDOF 5
