REMARK  Name = m169
REMARK  9 active torsions:
REMARK  status: ('A' for Active; 'I' for Inactive)
REMARK    1  A    between atoms: C_1  and  C_2
REMARK    2  A    between atoms: C_3  and  C_4
REMARK    3  A    between atoms: C_10  and  C_11
REMARK    4  A    between atoms: C_12  and  C_13
REMARK    5  A    between atoms: N_15  and  C_16
REMARK    6  A    between atoms: N_15  and  C_17
REMARK    7  A    between atoms: C_17  and  C_18
REMARK    8  A    between atoms: C_18  and  O_19
REMARK    9  A    between atoms: N_30  and  C_31
REMARK                            x       y       z     vdW  Elec       q    Type
REMARK                         _______ _______ _______ _____ _____    ______ ____
ROOT
ATOM      1  C   UNL     1       1.563  -0.755  -0.194  0.00  0.00    +0.011 A 
ATOM      2  C   UNL     1       2.012  -2.087  -0.221  0.00  0.00    +0.014 A 
ATOM      3  C   UNL     1       3.356  -2.286   0.181  0.00  0.00    +0.109 A 
ATOM      4  N   UNL     1       3.919  -3.472   0.205  0.00  0.00    -0.248 NA
ATOM      5  C   UNL     1       3.254  -4.553  -0.154  0.00  0.00    +0.112 A 
ATOM      6  C   UNL     1       1.933  -4.460  -0.569  0.00  0.00    +0.020 A 
ATOM      7  S   UNL     1       3.909  -0.645   0.579  0.00  0.00    -0.064 S 
ATOM      8  C   UNL     1       1.302  -3.252  -0.612  0.00  0.00    +0.012 A 
ATOM      9  C   UNL     1       2.402   0.235   0.209  0.00  0.00    +0.082 A 
ENDROOT
BRANCH   1  13
ATOM     10  C   UNL     1      -3.144  -0.241   0.761  0.00  0.00    +0.250 C 
ATOM     11  N   UNL     1      -2.034   0.281   0.202  0.00  0.00    -0.292 N 
ATOM     12  C   UNL     1      -0.690  -0.128   0.645  0.00  0.00    +0.144 C 
ATOM     13  C   UNL     1       0.151  -0.427  -0.606  0.00  0.00    +0.167 C 
ATOM     14  O   UNL     1       0.158   0.717  -1.459  0.00  0.00    -0.369 OA
ATOM     15  C   UNL     1      -1.157   0.871  -1.991  0.00  0.00    +0.179 C 
ATOM     16  C   UNL     1      -2.118   1.286  -0.871  0.00  0.00    +0.136 C 
ATOM     17  O   UNL     1      -3.051  -1.153   1.560  0.00  0.00    -0.270 OA
BRANCH  10  24
ATOM     18  C   UNL     1      -5.760  -1.935   0.323  0.00  0.00    +0.066 C 
ATOM     19  C   UNL     1      -5.624  -0.438   0.210  0.00  0.00    +0.048 A 
ATOM     20  N   UNL     1      -6.601   0.427  -0.105  0.00  0.00    -0.271 N 
ATOM     21  C   UNL     1      -7.994   0.078  -0.394  0.00  0.00    +0.172 C 
ATOM     22  N   UNL     1      -6.066   1.720  -0.102  0.00  0.00    -0.179 NA
ATOM     23  C   UNL     1      -4.798   1.653   0.197  0.00  0.00    +0.147 A 
ATOM     24  C   UNL     1      -4.470   0.294   0.404  0.00  0.00    +0.077 A 
ENDBRANCH  10  24
ENDBRANCH   1  13
BRANCH   9  25
ATOM     25  C   UNL     1       2.134   1.676   0.315  0.00  0.00    +0.253 C 
ATOM     26  N   UNL     1       3.131   2.526   0.630  0.00  0.00    -0.298 N 
ATOM     27  C   UNL     1       2.893   3.971   0.620  0.00  0.00    +0.132 C 
ATOM     28  O   UNL     1       1.011   2.102   0.119  0.00  0.00    -0.269 OA
BRANCH  26  29
ATOM     29  C   UNL     1       4.454   2.004   0.982  0.00  0.00    +0.135 C 
BRANCH  29  30
ATOM     30  C   UNL     1       5.252   1.734  -0.296  0.00  0.00    +0.174 C 
BRANCH  30  31
ATOM     31  O   UNL     1       5.500   2.967  -0.973  0.00  0.00    -0.393 OA
ATOM     32  H   UNL     1       6.003   2.752  -1.770  0.00  0.00    +0.209 HD
ENDBRANCH  30  31
ENDBRANCH  29  30
ENDBRANCH  26  29
ENDBRANCH   9  25
TORSDOF 6
