REMARK  Name = m170
REMARK  7 active torsions:
REMARK  status: ('A' for Active; 'I' for Inactive)
REMARK    1  A    between atoms: C_1  and  O_2
REMARK    2  A    between atoms: O_2  and  C_3
REMARK    3  A    between atoms: C_6  and  O_7
REMARK    4  A    between atoms: O_7  and  C_8
REMARK    5  A    between atoms: C_9  and  C_10
REMARK    6  A    between atoms: C_11  and  C_12
REMARK    7  A    between atoms: C_21  and  C_22
REMARK                            x       y       z     vdW  Elec       q    Type
REMARK                         _______ _______ _______ _____ _____    ______ ____
ROOT
ATOM      1  C   UNL     1       1.177  -0.743   0.802  0.00  0.00    +0.181 C 
ATOM      2  N   UNL     1       2.549  -1.209   0.621  0.00  0.00    -0.221 N 
ATOM      3  C   UNL     1       2.936  -2.031  -0.386  0.00  0.00    +0.218 A 
ATOM      4  N   UNL     1       4.218  -2.242  -0.264  0.00  0.00    -0.201 NA
ATOM      5  C   UNL     1       4.680  -1.583   0.804  0.00  0.00    +0.247 A 
ATOM      6  N   UNL     1       2.035  -2.506  -1.330  0.00  0.00    -0.287 N 
ATOM      7  H   UNL     1       2.339  -2.941  -2.142  0.00  0.00    +0.155 HD
ATOM      8  C   UNL     1       0.698  -2.336  -1.069  0.00  0.00    +0.018 C 
ATOM      9  C   UNL     1      -0.308  -3.075  -1.914  0.00  0.00    +0.061 C 
ATOM     10  N   UNL     1       3.691  -0.940   1.374  0.00  0.00    -0.156 NA
ATOM     11  C   UNL     1       0.257  -1.535  -0.089  0.00  0.00    +0.060 C 
ENDROOT
BRANCH  11  12
ATOM     12  C   UNL     1      -1.138  -1.428   0.118  0.00  0.00    +0.249 C 
ATOM     13  N   UNL     1      -1.878  -0.628  -0.676  0.00  0.00    -0.267 N 
ATOM     14  H   UNL     1      -1.468  -0.187  -1.437  0.00  0.00    +0.157 HD
ATOM     15  C   UNL     1      -3.230  -0.436  -0.405  0.00  0.00    +0.125 A 
ATOM     16  N   UNL     1      -3.761  -0.959   0.689  0.00  0.00    -0.240 NA
ATOM     17  C   UNL     1      -5.036  -0.796   0.986  0.00  0.00    +0.113 A 
ATOM     18  C   UNL     1      -5.871  -0.078   0.153  0.00  0.00    +0.020 A 
ATOM     19  C   UNL     1      -5.355   0.482  -1.008  0.00  0.00    +0.005 A 
ATOM     20  C   UNL     1      -4.013   0.299  -1.289  0.00  0.00    +0.044 A 
ATOM     21  O   UNL     1      -1.671  -2.057   1.014  0.00  0.00    -0.270 OA
ENDBRANCH  11  12
BRANCH   1  24
ATOM     22  C   UNL     1       1.340   2.480  -1.164  0.00  0.00    +0.121 A 
ATOM     23  C   UNL     1       1.415   1.135  -0.834  0.00  0.00    +0.055 A 
ATOM     24  C   UNL     1       1.091   0.718   0.443  0.00  0.00    +0.027 A 
ATOM     25  C   UNL     1       0.681   1.642   1.392  0.00  0.00    +0.126 A 
ATOM     26  C   UNL     1       0.601   2.987   1.060  0.00  0.00    +0.049 A 
ATOM     27  C   UNL     1       0.930   3.405  -0.215  0.00  0.00    +0.049 A 
BRANCH  22  29
ATOM     28  C   UNL     1       1.483   4.308  -2.448  0.00  0.00    +0.277 C 
ATOM     29  O   UNL     1       1.664   2.891  -2.418  0.00  0.00    -0.495 OA
ENDBRANCH  22  29
BRANCH  25  30
ATOM     30  O   UNL     1       0.357   1.231   2.647  0.00  0.00    -0.495 OA
ATOM     31  C   UNL     1      -0.020   2.398   3.379  0.00  0.00    +0.277 C 
ENDBRANCH  25  30
ENDBRANCH   1  24
TORSDOF 4
