REMARK  Name = m171
REMARK  5 active torsions:
REMARK  status: ('A' for Active; 'I' for Inactive)
REMARK    1  A    between atoms: C_1  and  C_2
REMARK    2  A    between atoms: C_18  and  C_19
REMARK    3  A    between atoms: C_22  and  O_23
REMARK    4  A    between atoms: O_23  and  C_24
REMARK    5  A    between atoms: C_24  and  C_25
REMARK                            x       y       z     vdW  Elec       q    Type
REMARK                         _______ _______ _______ _____ _____    ______ ____
ROOT
ATOM      1  C   UNL     1      -4.838   2.723  -2.584  0.00  0.00    +0.090 C 
ATOM      2  C   UNL     1      -5.401   2.733  -1.186  0.00  0.00    +0.152 A 
ATOM      3  N   UNL     1      -5.082   1.876  -0.193  0.00  0.00    -0.195 N 
ATOM      4  C   UNL     1      -5.828   2.262   0.895  0.00  0.00    +0.178 A 
ATOM      5  C   UNL     1      -5.707   1.548   2.102  0.00  0.00    +0.054 A 
ATOM      6  C   UNL     1      -4.850   0.494   2.165  0.00  0.00    +0.054 A 
ATOM      7  C   UNL     1      -4.096   0.129   1.034  0.00  0.00    +0.176 A 
ATOM      8  N   UNL     1      -3.217  -0.956   1.111  0.00  0.00    -0.198 N 
ATOM      9  C   UNL     1      -2.438  -1.423   0.114  0.00  0.00    +0.134 A 
ATOM     10  N   UNL     1      -2.282  -0.981  -1.200  0.00  0.00    -0.270 N 
ATOM     11  H   UNL     1      -2.631  -0.121  -1.482  0.00  0.00    +0.156 HD
ATOM     12  C   UNL     1      -1.631  -1.786  -2.067  0.00  0.00    +0.219 C 
ATOM     13  C   UNL     1      -1.205  -3.179  -1.702  0.00  0.00    +0.109 C 
ATOM     14  C   UNL     1      -0.756  -3.265  -0.243  0.00  0.00    +0.063 C 
ATOM     15  O   UNL     1      -1.381  -1.369  -3.178  0.00  0.00    -0.275 OA
ATOM     16  C   UNL     1      -1.733  -2.490   0.604  0.00  0.00    +0.020 A 
ATOM     17  C   UNL     1      -2.102  -2.675   1.928  0.00  0.00    +0.141 A 
ATOM     18  N   UNL     1      -2.990  -1.760   2.240  0.00  0.00    -0.171 NA
ATOM     19  N   UNL     1      -6.550   3.303   0.514  0.00  0.00    -0.128 NA
ATOM     20  N   UNL     1      -4.207   0.793  -0.092  0.00  0.00    -0.144 NA
ATOM     21  N   UNL     1      -6.290   3.573  -0.717  0.00  0.00    -0.132 NA
ENDROOT
BRANCH  14  22
ATOM     22  C   UNL     1       0.618  -2.664  -0.098  0.00  0.00    -0.039 A 
ATOM     23  C   UNL     1       0.832  -1.341  -0.437  0.00  0.00    +0.008 A 
ATOM     24  C   UNL     1       2.090  -0.786  -0.300  0.00  0.00    +0.046 A 
ATOM     25  C   UNL     1       3.141  -1.561   0.170  0.00  0.00    +0.121 A 
ATOM     26  C   UNL     1       2.925  -2.890   0.504  0.00  0.00    +0.046 A 
ATOM     27  C   UNL     1       1.664  -3.438   0.370  0.00  0.00    +0.008 A 
BRANCH  25  28
ATOM     28  O   UNL     1       4.380  -1.019   0.300  0.00  0.00    -0.487 OA
BRANCH  28  29
ATOM     29  C   UNL     1       4.281   0.344  -0.117  0.00  0.00    +0.264 C 
BRANCH  29  30
ATOM     30  C   UNL     1       5.630   1.006   0.004  0.00  0.00    -0.010 A 
ATOM     31  C   UNL     1       5.985   1.639   1.181  0.00  0.00    +0.010 A 
ATOM     32  C   UNL     1       7.223   2.242   1.295  0.00  0.00    +0.039 A 
ATOM     33  C   UNL     1       8.104   2.220   0.227  0.00  0.00    +0.123 A 
ATOM     34  F   UNL     1       9.313   2.813   0.336  0.00  0.00    -0.205 F 
ATOM     35  C   UNL     1       7.746   1.590  -0.952  0.00  0.00    +0.039 A 
ATOM     36  C   UNL     1       6.509   0.984  -1.063  0.00  0.00    +0.010 A 
ENDBRANCH  29  30
ENDBRANCH  28  29
ENDBRANCH  25  28
ENDBRANCH  14  22
TORSDOF 4
