REMARK  Name = m172
REMARK  12 active torsions:
REMARK  status: ('A' for Active; 'I' for Inactive)
REMARK    1  A    between atoms: C_1  and  C_2
REMARK    2  A    between atoms: C_2  and  O_3
REMARK    3  A    between atoms: O_3  and  C_4
REMARK    4  A    between atoms: C_4  and  C_6
REMARK    5  A    between atoms: C_8  and  N_9
REMARK    6  A    between atoms: C_10  and  C_12
REMARK    7  A    between atoms: C_14  and  C_15
REMARK    8  A    between atoms: C_26  and  C_27
REMARK    9  A    between atoms: C_27  and  O_29
REMARK   10  A    between atoms: O_29  and  C_30
REMARK   11  A    between atoms: C_30  and  C_31
REMARK   12  A    between atoms: C_32  and  C_33
REMARK                            x       y       z     vdW  Elec       q    Type
REMARK                         _______ _______ _______ _____ _____    ______ ____
ROOT
ATOM      1  N   UNL     1       0.882  -0.623  -0.284  0.00  0.00    -0.274 N 
ATOM      2  H   UNL     1       0.617  -1.544  -0.435  0.00  0.00    +0.156 HD
ATOM      3  C   UNL     1      -0.057   0.333  -0.142  0.00  0.00    +0.270 C 
ATOM      4  O   UNL     1       0.274   1.487   0.047  0.00  0.00    -0.268 OA
ENDROOT
BRANCH   1   9
ATOM      5  C   UNL     1       4.653   0.795  -0.013  0.00  0.00    +0.102 A 
ATOM      6  C   UNL     1       4.589  -0.555  -0.235  0.00  0.00    -0.014 A 
ATOM      7  C   UNL     1       5.841  -1.386  -0.354  0.00  0.00    +0.046 C 
ATOM      8  C   UNL     1       3.333  -1.132  -0.336  0.00  0.00    +0.091 A 
ATOM      9  C   UNL     1       2.219  -0.292  -0.215  0.00  0.00    +0.087 A 
ATOM     10  S   UNL     1       2.935   1.265   0.042  0.00  0.00    -0.066 S 
BRANCH   5  11
ATOM     11  C   UNL     1       5.837   1.640   0.136  0.00  0.00    +0.346 C 
ATOM     12  O   UNL     1       6.948   1.149   0.070  0.00  0.00    -0.244 OA
BRANCH  11  13
ATOM     13  O   UNL     1       5.697   2.966   0.347  0.00  0.00    -0.461 OA
BRANCH  13  15
ATOM     14  C   UNL     1       6.927   5.018   0.690  0.00  0.00    +0.048 C 
ATOM     15  C   UNL     1       7.015   3.509   0.449  0.00  0.00    +0.229 C 
ENDBRANCH  13  15
ENDBRANCH  11  13
ENDBRANCH   5  11
BRANCH   8  16
ATOM     16  C   UNL     1       3.176  -2.572  -0.569  0.00  0.00    +0.342 C 
ATOM     17  O   UNL     1       3.122  -3.002  -1.705  0.00  0.00    -0.245 OA
BRANCH  16  18
ATOM     18  O   UNL     1       3.090  -3.418   0.477  0.00  0.00    -0.461 OA
BRANCH  18  19
ATOM     19  C   UNL     1       2.934  -4.843   0.247  0.00  0.00    +0.229 C 
ATOM     20  C   UNL     1       2.863  -5.572   1.591  0.00  0.00    +0.048 C 
ENDBRANCH  18  19
ENDBRANCH  16  18
ENDBRANCH   8  16
ENDBRANCH   1   9
BRANCH   3  21
ATOM     21  C   UNL     1      -1.495  -0.022  -0.216  0.00  0.00    +0.169 A 
ATOM     22  N   UNL     1      -2.001  -1.215  -0.419  0.00  0.00    -0.073 NA
ATOM     23  O   UNL     1      -3.209  -1.195  -0.426  0.00  0.00    -0.354 OA
ATOM     24  C   UNL     1      -3.687   0.047  -0.232  0.00  0.00    +0.168 A 
ATOM     25  C   UNL     1      -2.598   0.861  -0.088  0.00  0.00    +0.086 A 
BRANCH  24  26
ATOM     26  C   UNL     1      -5.108   0.452  -0.185  0.00  0.00    +0.024 A 
ATOM     27  C   UNL     1      -6.046  -0.360   0.455  0.00  0.00    +0.061 A 
ATOM     28  C   UNL     1      -7.373   0.024   0.501  0.00  0.00    +0.167 A 
ATOM     29  O   UNL     1      -8.467  -0.574   1.056  0.00  0.00    -0.453 OA
ATOM     30  C   UNL     1      -9.604   0.056   0.437  0.00  0.00    +0.466 C 
ATOM     31  O   UNL     1      -9.119   1.363   0.079  0.00  0.00    -0.453 OA
ATOM     32  C   UNL     1      -7.774   1.217  -0.100  0.00  0.00    +0.166 A 
ATOM     33  C   UNL     1      -6.842   2.020  -0.741  0.00  0.00    +0.050 A 
ATOM     34  C   UNL     1      -5.516   1.644  -0.785  0.00  0.00    +0.015 A 
ENDBRANCH  24  26
ENDBRANCH   3  21
TORSDOF 9
