REMARK  Name = m173
REMARK  8 active torsions:
REMARK  status: ('A' for Active; 'I' for Inactive)
REMARK    1  A    between atoms: C_1  and  C_2
REMARK    2  A    between atoms: C_2  and  C_3
REMARK    3  A    between atoms: C_2  and  N_4
REMARK    4  A    between atoms: C_5  and  C_7
REMARK    5  A    between atoms: C_15  and  C_16
REMARK    6  A    between atoms: N_18  and  S_19
REMARK    7  A    between atoms: S_19  and  C_22
REMARK    8  A    between atoms: N_25  and  C_26
REMARK                            x       y       z     vdW  Elec       q    Type
REMARK                         _______ _______ _______ _____ _____    ______ ____
ROOT
ATOM      1  C   UNL     1       2.461   0.589   0.150  0.00  0.00    +0.082 A 
ATOM      2  C   UNL     1       2.021  -0.644  -0.217  0.00  0.00    +0.011 A 
ATOM      3  C   UNL     1       2.734  -1.788   0.181  0.00  0.00    +0.014 A 
ATOM      4  C   UNL     1       3.887  -1.547   0.967  0.00  0.00    +0.109 A 
ATOM      5  N   UNL     1       4.652  -2.516   1.418  0.00  0.00    -0.248 NA
ATOM      6  C   UNL     1       4.381  -3.780   1.156  0.00  0.00    +0.112 A 
ATOM      7  C   UNL     1       3.272  -4.117   0.392  0.00  0.00    +0.020 A 
ATOM      8  C   UNL     1       2.446  -3.150  -0.100  0.00  0.00    +0.012 A 
ATOM      9  S   UNL     1       3.923   0.224   1.105  0.00  0.00    -0.064 S 
ENDROOT
BRANCH   2  10
ATOM     10  C   UNL     1       0.775  -0.783  -1.053  0.00  0.00    +0.166 C 
ATOM     11  O   UNL     1       0.807   0.170  -2.115  0.00  0.00    -0.369 OA
ATOM     12  C   UNL     1      -0.274  -0.127  -2.998  0.00  0.00    +0.178 C 
ATOM     13  C   UNL     1      -1.604   0.182  -2.302  0.00  0.00    +0.137 C 
ATOM     14  N   UNL     1      -1.650  -0.579  -1.041  0.00  0.00    -0.172 NA
ATOM     15  C   UNL     1      -0.458  -0.535  -0.178  0.00  0.00    +0.146 C 
BRANCH  14  16
ATOM     16  S   UNL     1      -2.991  -1.451  -0.612  0.00  0.00    +0.064 S 
ATOM     17  O   UNL     1      -2.534  -2.434   0.307  0.00  0.00    -0.153 OA
ATOM     18  O   UNL     1      -3.684  -1.716  -1.823  0.00  0.00    -0.153 OA
BRANCH  16  19
ATOM     19  C   UNL     1      -4.040  -0.381   0.316  0.00  0.00    +0.143 A 
ATOM     20  C   UNL     1      -4.019  -0.213   1.658  0.00  0.00    +0.136 A 
ATOM     21  N   UNL     1      -4.972   0.690   1.974  0.00  0.00    -0.273 N 
ATOM     22  C   UNL     1      -5.291   1.169   3.321  0.00  0.00    +0.172 C 
ATOM     23  N   UNL     1      -5.604   1.083   0.788  0.00  0.00    -0.178 NA
ATOM     24  C   UNL     1      -5.045   0.440  -0.205  0.00  0.00    +0.162 A 
ENDBRANCH  16  19
ENDBRANCH  14  16
ENDBRANCH   2  10
BRANCH   1  27
ATOM     25  N   UNL     1       2.455   3.025   0.301  0.00  0.00    -0.309 N 
ATOM     26  H   UNL     1       3.262   2.969   0.837  0.00  0.00    +0.149 HD
ATOM     27  C   UNL     1       1.874   1.900  -0.160  0.00  0.00    +0.251 C 
ATOM     28  O   UNL     1       0.862   1.970  -0.832  0.00  0.00    -0.270 OA
BRANCH  25  30
ATOM     29  C   UNL     1       2.281   5.341   1.067  0.00  0.00    +0.027 C 
ATOM     30  C   UNL     1       1.870   4.332  -0.007  0.00  0.00    +0.067 C 
ATOM     31  C   UNL     1       2.372   4.807  -1.372  0.00  0.00    +0.027 C 
ENDBRANCH  25  30
ENDBRANCH   1  27
TORSDOF 5
