REMARK  Name = m174
REMARK  12 active torsions:
REMARK  status: ('A' for Active; 'I' for Inactive)
REMARK    1  A    between atoms: C_1  and  C_2
REMARK    2  A    between atoms: C_2  and  O_3
REMARK    3  A    between atoms: O_3  and  C_4
REMARK    4  A    between atoms: C_4  and  C_6
REMARK    5  A    between atoms: C_7  and  S_8
REMARK    6  A    between atoms: S_8  and  N_11
REMARK    7  A    between atoms: C_15  and  C_16
REMARK    8  A    between atoms: C_22  and  C_23
REMARK    9  A    between atoms: C_27  and  C_28
REMARK   10  A    between atoms: N_29  and  C_30
REMARK   11  A    between atoms: C_30  and  C_31
REMARK   12  A    between atoms: C_32  and  C_33
REMARK                            x       y       z     vdW  Elec       q    Type
REMARK                         _______ _______ _______ _____ _____    ______ ____
ROOT
ATOM      1  S   UNL     1      -2.520   1.229   1.527  0.00  0.00    +0.063 S 
ATOM      2  O   UNL     1      -2.052   0.466   2.631  0.00  0.00    -0.153 OA
ATOM      3  O   UNL     1      -3.519   2.237   1.587  0.00  0.00    -0.153 OA
ENDROOT
BRANCH   1  10
ATOM      4  C   UNL     1      -2.697  -1.352   0.237  0.00  0.00    +0.106 A 
ATOM      5  C   UNL     1      -3.398  -1.864  -0.834  0.00  0.00    +0.032 A 
ATOM      6  C   UNL     1      -3.326  -3.282  -1.340  0.00  0.00    +0.064 C 
ATOM      7  N   UNL     1      -4.163  -0.881  -1.344  0.00  0.00    -0.346 N 
ATOM      8  C   UNL     1      -3.981   0.275  -0.642  0.00  0.00    +0.043 A 
ATOM      9  C   UNL     1      -4.666   1.587  -0.927  0.00  0.00    +0.065 C 
ATOM     10  C   UNL     1      -3.093   0.057   0.343  0.00  0.00    +0.140 A 
BRANCH   4  11
ATOM     11  C   UNL     1      -1.741  -2.070   1.095  0.00  0.00    +0.343 C 
ATOM     12  O   UNL     1      -2.131  -2.636   2.098  0.00  0.00    -0.245 OA
BRANCH  11  13
ATOM     13  O   UNL     1      -0.434  -2.100   0.770  0.00  0.00    -0.461 OA
BRANCH  13  15
ATOM     14  C   UNL     1       1.915  -2.689   1.026  0.00  0.00    +0.048 C 
ATOM     15  C   UNL     1       0.509  -2.809   1.617  0.00  0.00    +0.229 C 
ENDBRANCH  13  15
ENDBRANCH  11  13
ENDBRANCH   4  11
BRANCH   7  16
ATOM     16  C   UNL     1      -5.060  -1.030  -2.493  0.00  0.00    +0.118 C 
ATOM     17  C   UNL     1      -4.296  -0.713  -3.780  0.00  0.00    +0.027 C 
ENDBRANCH   7  16
ENDBRANCH   1  10
BRANCH   1  18
ATOM     18  N   UNL     1      -1.180   1.963   0.887  0.00  0.00    -0.176 NA
ATOM     19  C   UNL     1       0.161   1.411   1.125  0.00  0.00    +0.122 C 
ATOM     20  C   UNL     1       0.853   1.205  -0.231  0.00  0.00    +0.091 C 
ATOM     21  C   UNL     1       0.845   2.525  -1.006  0.00  0.00    +0.015 C 
ATOM     22  C   UNL     1      -0.600   2.958  -1.264  0.00  0.00    +0.018 C 
ATOM     23  C   UNL     1      -1.309   3.181   0.076  0.00  0.00    +0.109 C 
BRANCH  20  24
ATOM     24  C   UNL     1       2.276   0.763  -0.006  0.00  0.00    +0.223 C 
ATOM     25  N   UNL     1       3.082   0.525  -1.059  0.00  0.00    -0.270 N 
ATOM     26  H   UNL     1       2.727   0.565  -1.961  0.00  0.00    +0.156 HD
ATOM     27  C   UNL     1       4.427   0.222  -0.853  0.00  0.00    +0.125 A 
ATOM     28  N   UNL     1       4.884   0.073   0.380  0.00  0.00    -0.240 NA
ATOM     29  C   UNL     1       6.148  -0.219   0.619  0.00  0.00    +0.116 A 
ATOM     30  C   UNL     1       7.048  -0.370  -0.417  0.00  0.00    -0.032 A 
ATOM     31  C   UNL     1       8.491  -0.697  -0.131  0.00  0.00    +0.045 C 
ATOM     32  C   UNL     1       6.610  -0.216  -1.726  0.00  0.00    +0.008 A 
ATOM     33  C   UNL     1       5.277   0.085  -1.944  0.00  0.00    +0.044 A 
ATOM     34  O   UNL     1       2.695   0.620   1.123  0.00  0.00    -0.275 OA
ENDBRANCH  20  24
ENDBRANCH   1  18
TORSDOF 7
