REMARK  Name = m175
REMARK  7 active torsions:
REMARK  status: ('A' for Active; 'I' for Inactive)
REMARK    1  A    between atoms: C_1  and  C_2
REMARK    2  A    between atoms: C_3  and  C_4
REMARK    3  A    between atoms: C_6  and  C_7
REMARK    4  A    between atoms: N_20  and  C_21
REMARK    5  A    between atoms: C_21  and  C_22
REMARK    6  A    between atoms: N_24  and  C_25
REMARK    7  A    between atoms: C_25  and  C_26
REMARK                            x       y       z     vdW  Elec       q    Type
REMARK                         _______ _______ _______ _____ _____    ______ ____
ROOT
ATOM      1  C   UNL     1       0.516   1.315  -1.359  0.00  0.00    +0.046 C 
ATOM      2  C   UNL     1       0.651  -0.047  -0.730  0.00  0.00    -0.017 A 
ATOM      3  C   UNL     1      -0.473  -0.867  -0.584  0.00  0.00    +0.076 A 
ATOM      4  C   UNL     1      -0.243  -2.126   0.013  0.00  0.00    +0.116 A 
ATOM      5  N   UNL     1      -1.223  -3.000   0.205  0.00  0.00    -0.230 NA
ATOM      6  C   UNL     1      -2.451  -2.740  -0.153  0.00  0.00    +0.203 A 
ATOM      7  N   UNL     1      -2.793  -1.567  -0.740  0.00  0.00    -0.290 N 
ATOM      8  S   UNL     1       1.500  -2.106   0.348  0.00  0.00    -0.063 S 
ATOM      9  C   UNL     1      -1.876  -0.610  -0.982  0.00  0.00    +0.263 A 
ATOM     10  O   UNL     1      -2.193   0.441  -1.510  0.00  0.00    -0.267 OA
ATOM     11  C   UNL     1       1.868  -0.483  -0.297  0.00  0.00    +0.082 A 
ENDROOT
BRANCH  11  12
ATOM     12  C   UNL     1       3.161   0.212  -0.348  0.00  0.00    +0.266 A 
ATOM     13  O   UNL     1       3.393   1.437  -0.849  0.00  0.00    -0.332 OA
ATOM     14  N   UNL     1       4.568   1.714  -0.733  0.00  0.00    -0.056 NA
ATOM     15  C   UNL     1       5.216   0.727  -0.168  0.00  0.00    +0.202 A 
ATOM     16  N   UNL     1       4.322  -0.250   0.087  0.00  0.00    -0.187 NA
BRANCH  15  17
ATOM     17  C   UNL     1       6.669   0.689   0.135  0.00  0.00    +0.023 A 
ATOM     18  C   UNL     1       7.226  -0.432   0.747  0.00  0.00    +0.014 A 
ATOM     19  C   UNL     1       8.578  -0.465   1.022  0.00  0.00    +0.039 A 
ATOM     20  C   UNL     1       9.379   0.619   0.701  0.00  0.00    +0.123 A 
ATOM     21  F   UNL     1      10.701   0.585   0.978  0.00  0.00    -0.205 F 
ATOM     22  C   UNL     1       8.827   1.738   0.098  0.00  0.00    +0.039 A 
ATOM     23  C   UNL     1       7.478   1.777  -0.185  0.00  0.00    +0.014 A 
ENDBRANCH  15  17
ENDBRANCH  11  12
BRANCH   7  24
ATOM     24  C   UNL     1      -4.189  -1.334  -1.119  0.00  0.00    +0.221 C 
BRANCH  24  25
ATOM     25  C   UNL     1      -4.921  -0.688   0.029  0.00  0.00    +0.233 C 
ATOM     26  N   UNL     1      -6.227  -0.379  -0.092  0.00  0.00    -0.311 N 
ATOM     27  H   UNL     1      -6.696  -0.573  -0.918  0.00  0.00    +0.149 HD
ATOM     28  O   UNL     1      -4.334  -0.446   1.063  0.00  0.00    -0.274 OA
BRANCH  26  29
ATOM     29  C   UNL     1      -6.938   0.249   1.025  0.00  0.00    +0.135 C 
BRANCH  29  30
ATOM     30  C   UNL     1      -8.396   0.491   0.629  0.00  0.00    +0.135 C 
ATOM     31  O   UNL     1      -8.455   1.398  -0.486  0.00  0.00    -0.375 OA
ATOM     32  C   UNL     1      -9.647   2.194  -0.318  0.00  0.00    +0.160 C 
ATOM     33  C   UNL     1      -9.679   2.482   1.204  0.00  0.00    +0.031 C 
ATOM     34  C   UNL     1      -9.153   1.152   1.797  0.00  0.00    +0.035 C 
ENDBRANCH  29  30
ENDBRANCH  26  29
ENDBRANCH  24  25
ENDBRANCH   7  24
TORSDOF 6
