REMARK  Name = m176
REMARK  10 active torsions:
REMARK  status: ('A' for Active; 'I' for Inactive)
REMARK    1  A    between atoms: C_1  and  C_2
REMARK    2  A    between atoms: C_2  and  S_3
REMARK    3  A    between atoms: S_3  and  C_4
REMARK    4  A    between atoms: C_7  and  C_8
REMARK    5  A    between atoms: N_10  and  C_11
REMARK    6  A    between atoms: N_15  and  S_16
REMARK    7  A    between atoms: S_16  and  C_19
REMARK    8  A    between atoms: C_22  and  C_23
REMARK    9  A    between atoms: N_28  and  C_29
REMARK   10  A    between atoms: C_29  and  C_30
REMARK                            x       y       z     vdW  Elec       q    Type
REMARK                         _______ _______ _______ _____ _____    ______ ____
ROOT
ATOM      1  C   UNL     1       1.027  -1.442   0.211  0.00  0.00    +0.134 A 
ATOM      2  C   UNL     1      -0.231  -1.246   0.804  0.00  0.00    +0.020 A 
ATOM      3  C   UNL     1      -0.691  -0.079   1.643  0.00  0.00    +0.148 C 
ATOM      4  N   UNL     1      -2.153  -0.197   1.793  0.00  0.00    -0.172 NA
ATOM      5  C   UNL     1      -2.718  -1.519   2.101  0.00  0.00    +0.116 C 
ATOM      6  C   UNL     1      -2.446  -2.471   0.931  0.00  0.00    +0.072 C 
ATOM      7  C   UNL     1      -1.012  -2.309   0.493  0.00  0.00    +0.045 A 
ATOM      8  N   UNL     1      -0.280  -3.156  -0.255  0.00  0.00    -0.270 N 
ATOM      9  C   UNL     1      -0.737  -4.438  -0.796  0.00  0.00    +0.172 C 
ATOM     10  N   UNL     1       0.995  -2.598  -0.424  0.00  0.00    -0.168 NA
ENDROOT
BRANCH   1  13
ATOM     11  C   UNL     1       4.151   0.393   0.057  0.00  0.00    +0.192 A 
ATOM     12  N   UNL     1       3.416  -0.706  -0.287  0.00  0.00    -0.301 N 
ATOM     13  C   UNL     1       2.181  -0.520   0.290  0.00  0.00    +0.185 A 
ATOM     14  N   UNL     1       2.219   0.630   0.920  0.00  0.00    -0.127 NA
ATOM     15  N   UNL     1       3.378   1.168   0.783  0.00  0.00    -0.122 NA
BRANCH  12  16
ATOM     16  C   UNL     1       3.853  -1.847  -1.094  0.00  0.00    +0.122 C 
ATOM     17  C   UNL     1       3.548  -1.575  -2.569  0.00  0.00    +0.027 C 
ENDBRANCH  12  16
BRANCH  11  18
ATOM     18  S   UNL     1       5.824   0.715  -0.396  0.00  0.00    -0.086 S 
BRANCH  18  20
ATOM     19  C   UNL     1       7.489   2.811   0.147  0.00  0.00    +0.016 C 
ATOM     20  C   UNL     1       6.065   2.317   0.410  0.00  0.00    +0.074 C 
ENDBRANCH  18  20
ENDBRANCH  11  18
ENDBRANCH   1  13
BRANCH   4  21
ATOM     21  S   UNL     1      -3.133   1.126   1.618  0.00  0.00    +0.061 S 
ATOM     22  O   UNL     1      -2.306   2.255   1.862  0.00  0.00    -0.153 OA
ATOM     23  O   UNL     1      -4.329   0.815   2.320  0.00  0.00    -0.153 OA
BRANCH  21  24
ATOM     24  C   UNL     1      -3.587   1.224  -0.082  0.00  0.00    +0.106 A 
ATOM     25  C   UNL     1      -2.809   1.950  -0.964  0.00  0.00    +0.029 A 
ATOM     26  C   UNL     1      -3.163   2.023  -2.299  0.00  0.00    +0.005 A 
ATOM     27  C   UNL     1      -4.300   1.378  -2.749  0.00  0.00    -0.050 A 
ATOM     28  C   UNL     1      -4.688   1.462  -4.203  0.00  0.00    +0.044 C 
ATOM     29  C   UNL     1      -5.081   0.657  -1.865  0.00  0.00    +0.005 A 
ATOM     30  C   UNL     1      -4.725   0.580  -0.532  0.00  0.00    +0.029 A 
ENDBRANCH  21  24
ENDBRANCH   4  21
TORSDOF 6
