REMARK  Name = m177
REMARK  10 active torsions:
REMARK  status: ('A' for Active; 'I' for Inactive)
REMARK    1  A    between atoms: C_1  and  C_2
REMARK    2  A    between atoms: C_2  and  S_3
REMARK    3  A    between atoms: S_3  and  C_4
REMARK    4  A    between atoms: C_7  and  C_8
REMARK    5  A    between atoms: N_10  and  C_11
REMARK    6  A    between atoms: N_15  and  S_16
REMARK    7  A    between atoms: S_16  and  C_19
REMARK    8  A    between atoms: C_22  and  C_23
REMARK    9  A    between atoms: C_25  and  C_26
REMARK   10  A    between atoms: N_29  and  C_30
REMARK                            x       y       z     vdW  Elec       q    Type
REMARK                         _______ _______ _______ _____ _____    ______ ____
ROOT
ATOM      1  C   UNL     1       1.350  -1.546  -0.048  0.00  0.00    +0.134 A 
ATOM      2  C   UNL     1       0.092  -1.471   0.572  0.00  0.00    +0.020 A 
ATOM      3  C   UNL     1      -0.414  -0.413   1.522  0.00  0.00    +0.148 C 
ATOM      4  N   UNL     1      -1.866  -0.620   1.673  0.00  0.00    -0.172 NA
ATOM      5  C   UNL     1      -2.360  -1.992   1.859  0.00  0.00    +0.116 C 
ATOM      6  C   UNL     1      -2.057  -2.814   0.603  0.00  0.00    +0.072 C 
ATOM      7  C   UNL     1      -0.639  -2.539   0.169  0.00  0.00    +0.045 A 
ATOM      8  N   UNL     1       0.124  -3.273  -0.662  0.00  0.00    -0.270 N 
ATOM      9  C   UNL     1      -0.275  -4.521  -1.318  0.00  0.00    +0.172 C 
ATOM     10  N   UNL     1       1.368  -2.638  -0.790  0.00  0.00    -0.168 NA
ENDROOT
BRANCH   1  14
ATOM     11  C   UNL     1       4.376   0.453  -0.056  0.00  0.00    +0.192 A 
ATOM     12  N   UNL     1       3.692  -0.645  -0.495  0.00  0.00    -0.304 N 
ATOM     13  C   UNL     1       4.175  -1.681  -1.411  0.00  0.00    +0.153 C 
ATOM     14  C   UNL     1       2.457  -0.578   0.108  0.00  0.00    +0.185 A 
ATOM     15  N   UNL     1       2.446   0.509   0.843  0.00  0.00    -0.127 NA
ATOM     16  N   UNL     1       3.575   1.116   0.747  0.00  0.00    -0.122 NA
BRANCH  11  17
ATOM     17  S   UNL     1       6.024   0.901  -0.492  0.00  0.00    -0.086 S 
BRANCH  17  19
ATOM     18  C   UNL     1       7.589   3.020   0.232  0.00  0.00    +0.016 C 
ATOM     19  C   UNL     1       6.195   2.431   0.460  0.00  0.00    +0.074 C 
ENDBRANCH  17  19
ENDBRANCH  11  17
ENDBRANCH   1  14
BRANCH   4  20
ATOM     20  S   UNL     1      -2.914   0.662   1.632  0.00  0.00    +0.061 S 
ATOM     21  O   UNL     1      -2.164   1.788   2.066  0.00  0.00    -0.153 OA
ATOM     22  O   UNL     1      -4.117   0.196   2.228  0.00  0.00    -0.153 OA
BRANCH  20  23
ATOM     23  C   UNL     1      -3.305   0.970  -0.058  0.00  0.00    +0.108 A 
ATOM     24  C   UNL     1      -4.382   1.772  -0.383  0.00  0.00    -0.024 A 
ATOM     25  C   UNL     1      -5.220   2.387   0.708  0.00  0.00    +0.046 C 
ATOM     26  C   UNL     1      -4.687   2.017  -1.710  0.00  0.00    +0.008 A 
ATOM     27  C   UNL     1      -3.918   1.452  -2.711  0.00  0.00    -0.050 A 
ATOM     28  C   UNL     1      -4.252   1.716  -4.156  0.00  0.00    +0.044 C 
ATOM     29  C   UNL     1      -2.844   0.646  -2.385  0.00  0.00    +0.005 A 
ATOM     30  C   UNL     1      -2.537   0.404  -1.059  0.00  0.00    +0.029 A 
ENDBRANCH  20  23
ENDBRANCH   4  20
TORSDOF 5
