REMARK  Name = m178
REMARK  12 active torsions:
REMARK  status: ('A' for Active; 'I' for Inactive)
REMARK    1  A    between atoms: C_1  and  C_2
REMARK    2  A    between atoms: C_2  and  O_3
REMARK    3  A    between atoms: O_3  and  C_4
REMARK    4  A    between atoms: C_7  and  S_8
REMARK    5  A    between atoms: S_8  and  N_11
REMARK    6  A    between atoms: C_16  and  C_17
REMARK    7  A    between atoms: C_20  and  S_21
REMARK    8  A    between atoms: S_21  and  C_22
REMARK    9  A    between atoms: C_22  and  C_23
REMARK   10  A    between atoms: N_24  and  C_25
REMARK   11  A    between atoms: C_25  and  C_26
REMARK   12  A    between atoms: N_28  and  C_29
REMARK                            x       y       z     vdW  Elec       q    Type
REMARK                         _______ _______ _______ _____ _____    ______ ____
ROOT
ATOM      1  N   UNL     1       1.436   1.470  -0.240  0.00  0.00    -0.172 NA
ATOM      2  C   UNL     1       0.199   0.703  -0.003  0.00  0.00    +0.148 C 
ATOM      3  C   UNL     1      -0.913   1.695   0.210  0.00  0.00    +0.020 A 
ATOM      4  C   UNL     1      -2.294   1.446   0.262  0.00  0.00    +0.134 A 
ATOM      5  N   UNL     1      -2.902   2.600   0.470  0.00  0.00    -0.168 NA
ATOM      6  N   UNL     1      -1.923   3.600   0.554  0.00  0.00    -0.270 N 
ATOM      7  C   UNL     1      -2.169   5.026   0.783  0.00  0.00    +0.172 C 
ATOM      8  C   UNL     1      -0.718   3.023   0.389  0.00  0.00    +0.045 A 
ATOM      9  C   UNL     1       0.633   3.694   0.393  0.00  0.00    +0.072 C 
ATOM     10  C   UNL     1       1.713   2.630   0.619  0.00  0.00    +0.116 C 
ENDROOT
BRANCH   4  11
ATOM     11  C   UNL     1      -2.950   0.130   0.109  0.00  0.00    +0.185 A 
ATOM     12  N   UNL     1      -4.301  -0.122   0.164  0.00  0.00    -0.301 N 
ATOM     13  C   UNL     1      -4.434  -1.468  -0.032  0.00  0.00    +0.192 A 
ATOM     14  N   UNL     1      -3.224  -1.960  -0.182  0.00  0.00    -0.122 NA
ATOM     15  N   UNL     1      -2.352  -1.020  -0.099  0.00  0.00    -0.127 NA
BRANCH  12  16
ATOM     16  C   UNL     1      -5.375   0.851   0.378  0.00  0.00    +0.122 C 
ATOM     17  C   UNL     1      -5.661   0.973   1.876  0.00  0.00    +0.027 C 
ENDBRANCH  12  16
BRANCH  13  18
ATOM     18  S   UNL     1      -5.944  -2.375  -0.069  0.00  0.00    -0.086 S 
BRANCH  18  19
ATOM     19  C   UNL     1      -5.301  -4.043  -0.356  0.00  0.00    +0.074 C 
ATOM     20  C   UNL     1      -6.466  -5.032  -0.427  0.00  0.00    +0.016 C 
ENDBRANCH  18  19
ENDBRANCH  13  18
ENDBRANCH   4  11
BRANCH   1  21
ATOM     21  S   UNL     1       2.482   1.040  -1.450  0.00  0.00    +0.061 S 
ATOM     22  O   UNL     1       1.713   0.286  -2.376  0.00  0.00    -0.153 OA
ATOM     23  O   UNL     1       3.220   2.214  -1.757  0.00  0.00    -0.153 OA
BRANCH  21  27
ATOM     24  C   UNL     1       5.473  -1.865   0.317  0.00  0.00    +0.121 A 
ATOM     25  C   UNL     1       5.728  -0.502   0.346  0.00  0.00    +0.047 A 
ATOM     26  C   UNL     1       4.817   0.382  -0.199  0.00  0.00    +0.032 A 
ATOM     27  C   UNL     1       3.646  -0.091  -0.762  0.00  0.00    +0.106 A 
ATOM     28  C   UNL     1       3.386  -1.449  -0.787  0.00  0.00    +0.032 A 
ATOM     29  C   UNL     1       4.297  -2.337  -0.248  0.00  0.00    +0.047 A 
BRANCH  24  30
ATOM     30  O   UNL     1       6.370  -2.737   0.848  0.00  0.00    -0.492 OA
BRANCH  30  32
ATOM     31  C   UNL     1       8.512  -2.884   1.958  0.00  0.00    +0.048 C 
ATOM     32  C   UNL     1       7.460  -1.958   1.344  0.00  0.00    +0.225 C 
ENDBRANCH  30  32
ENDBRANCH  24  30
ENDBRANCH  21  27
ENDBRANCH   1  21
TORSDOF 8
