REMARK  Name = m179
REMARK  6 active torsions:
REMARK  status: ('A' for Active; 'I' for Inactive)
REMARK    1  A    between atoms: C_1  and  C_2
REMARK    2  A    between atoms: C_3  and  C_4
REMARK    3  A    between atoms: C_6  and  C_7
REMARK    4  A    between atoms: N_20  and  C_21
REMARK    5  A    between atoms: C_21  and  C_22
REMARK    6  A    between atoms: N_24  and  C_25
REMARK                            x       y       z     vdW  Elec       q    Type
REMARK                         _______ _______ _______ _____ _____    ______ ____
ROOT
ATOM      1  C   UNL     1       0.275   1.698  -1.256  0.00  0.00    +0.046 C 
ATOM      2  C   UNL     1       0.296   0.263  -0.795  0.00  0.00    -0.017 A 
ATOM      3  C   UNL     1      -0.887  -0.482  -0.768  0.00  0.00    +0.076 A 
ATOM      4  C   UNL     1      -0.762  -1.818  -0.325  0.00  0.00    +0.116 A 
ATOM      5  N   UNL     1      -1.807  -2.634  -0.257  0.00  0.00    -0.230 NA
ATOM      6  C   UNL     1      -3.004  -2.243  -0.600  0.00  0.00    +0.203 A 
ATOM      7  N   UNL     1      -3.247  -0.986  -1.046  0.00  0.00    -0.290 N 
ATOM      8  S   UNL     1       0.969  -1.967   0.039  0.00  0.00    -0.063 S 
ATOM      9  C   UNL     1      -2.257  -0.077  -1.155  0.00  0.00    +0.263 A 
ATOM     10  O   UNL     1      -2.485   1.050  -1.556  0.00  0.00    -0.267 OA
ATOM     11  C   UNL     1       1.467  -0.310  -0.398  0.00  0.00    +0.082 A 
ENDROOT
BRANCH  11  12
ATOM     12  C   UNL     1       2.807   0.288  -0.343  0.00  0.00    +0.266 A 
ATOM     13  O   UNL     1       3.139   1.544  -0.688  0.00  0.00    -0.332 OA
ATOM     14  N   UNL     1       4.327   1.718  -0.519  0.00  0.00    -0.056 NA
ATOM     15  C   UNL     1       4.889   0.625  -0.068  0.00  0.00    +0.202 A 
ATOM     16  N   UNL     1       3.922  -0.307   0.051  0.00  0.00    -0.187 NA
BRANCH  15  17
ATOM     17  C   UNL     1       6.327   0.444   0.252  0.00  0.00    +0.023 A 
ATOM     18  C   UNL     1       6.787  -0.780   0.732  0.00  0.00    +0.014 A 
ATOM     19  C   UNL     1       8.126  -0.946   1.023  0.00  0.00    +0.039 A 
ATOM     20  C   UNL     1       9.010   0.107   0.850  0.00  0.00    +0.123 A 
ATOM     21  F   UNL     1      10.319  -0.057   1.142  0.00  0.00    -0.205 F 
ATOM     22  C   UNL     1       8.555   1.328   0.378  0.00  0.00    +0.039 A 
ATOM     23  C   UNL     1       7.220   1.500   0.080  0.00  0.00    +0.014 A 
ENDBRANCH  15  17
ENDBRANCH  11  12
BRANCH   7  24
ATOM     24  C   UNL     1      -4.612  -0.607  -1.417  0.00  0.00    +0.221 C 
BRANCH  24  25
ATOM     25  C   UNL     1      -5.324  -0.051  -0.211  0.00  0.00    +0.233 C 
ATOM     26  N   UNL     1      -6.602   0.365  -0.315  0.00  0.00    -0.311 N 
ATOM     27  H   UNL     1      -7.063   0.308  -1.167  0.00  0.00    +0.149 HD
ATOM     28  O   UNL     1      -4.748   0.021   0.854  0.00  0.00    -0.274 OA
BRANCH  26  29
ATOM     29  C   UNL     1      -7.295   0.905   0.857  0.00  0.00    +0.073 C 
ATOM     30  C   UNL     1      -7.961  -0.238   1.651  0.00  0.00    +0.022 C 
ATOM     31  C   UNL     1      -9.293   0.373   2.151  0.00  0.00    +0.002 C 
ATOM     32  C   UNL     1      -9.739   1.247   0.952  0.00  0.00    +0.002 C 
ATOM     33  C   UNL     1      -8.425   1.849   0.413  0.00  0.00    +0.022 C 
ENDBRANCH  26  29
ENDBRANCH  24  25
ENDBRANCH   7  24
TORSDOF 5
