REMARK  Name = m180
REMARK  5 active torsions:
REMARK  status: ('A' for Active; 'I' for Inactive)
REMARK    1  A    between atoms: C_2  and  C_3
REMARK    2  A    between atoms: C_3  and  O_4
REMARK    3  A    between atoms: O_4  and  C_5
REMARK    4  A    between atoms: C_8  and  C_9
REMARK    5  A    between atoms: C_25  and  C_26
REMARK                            x       y       z     vdW  Elec       q    Type
REMARK                         _______ _______ _______ _____ _____    ______ ____
ROOT
ATOM      1  C   UNL     1      -1.469   2.515   0.580  0.00  0.00    +0.063 C 
ATOM      2  C   UNL     1      -0.284   2.214  -0.302  0.00  0.00    +0.020 A 
ATOM      3  C   UNL     1       0.036   2.708  -1.558  0.00  0.00    +0.141 A 
ATOM      4  N   UNL     1       1.168   2.163  -1.939  0.00  0.00    -0.171 NA
ATOM      5  N   UNL     1       1.608   1.295  -0.926  0.00  0.00    -0.198 N 
ATOM      6  C   UNL     1       2.775   0.525  -0.948  0.00  0.00    +0.176 A 
ATOM      7  N   UNL     1       3.064  -0.240   0.077  0.00  0.00    -0.144 NA
ATOM      8  N   UNL     1       4.222  -1.021   0.074  0.00  0.00    -0.195 N 
ATOM      9  C   UNL     1       5.074  -0.984  -1.003  0.00  0.00    +0.178 A 
ATOM     10  N   UNL     1       6.073  -1.807  -0.730  0.00  0.00    -0.128 NA
ATOM     11  N   UNL     1       5.883  -2.335   0.429  0.00  0.00    -0.132 NA
ATOM     12  C   UNL     1       4.765  -0.157  -2.099  0.00  0.00    +0.054 A 
ATOM     13  C   UNL     1       4.770  -1.886   0.954  0.00  0.00    +0.152 A 
ATOM     14  C   UNL     1       4.204  -2.266   2.298  0.00  0.00    +0.090 C 
ATOM     15  C   UNL     1       3.627   0.587  -2.066  0.00  0.00    +0.054 A 
ATOM     16  C   UNL     1       0.701   1.339   0.072  0.00  0.00    +0.134 A 
ATOM     17  N   UNL     1       0.662   0.669   1.294  0.00  0.00    -0.270 N 
ATOM     18  H   UNL     1       1.250  -0.082   1.471  0.00  0.00    +0.156 HD
ATOM     19  C   UNL     1      -0.218   1.097   2.225  0.00  0.00    +0.219 C 
ATOM     20  O   UNL     1      -0.349   0.455   3.245  0.00  0.00    -0.275 OA
ATOM     21  C   UNL     1      -1.040   2.340   2.039  0.00  0.00    +0.109 C 
ENDROOT
BRANCH   1  25
ATOM     22  C   UNL     1      -4.657  -0.186  -0.320  0.00  0.00    +0.122 A 
ATOM     23  C   UNL     1      -3.430  -0.675   0.105  0.00  0.00    +0.046 A 
ATOM     24  C   UNL     1      -2.399   0.200   0.390  0.00  0.00    +0.008 A 
ATOM     25  C   UNL     1      -2.593   1.563   0.262  0.00  0.00    -0.039 A 
ATOM     26  C   UNL     1      -3.816   2.054  -0.155  0.00  0.00    +0.008 A 
ATOM     27  C   UNL     1      -4.848   1.183  -0.446  0.00  0.00    +0.046 A 
BRANCH  22  28
ATOM     28  O   UNL     1      -5.670  -1.044  -0.606  0.00  0.00    -0.480 OA
BRANCH  28  29
ATOM     29  C   UNL     1      -5.169  -2.364  -0.382  0.00  0.00    +0.317 C 
BRANCH  29  31
ATOM     30  C   UNL     1      -7.068  -4.130  -0.911  0.00  0.00    +0.007 C 
ATOM     31  C   UNL     1      -6.225  -3.346  -0.676  0.00  0.00    -0.065 C 
ENDBRANCH  29  31
ENDBRANCH  28  29
ENDBRANCH  22  28
ENDBRANCH   1  25
TORSDOF 4
