REMARK  Name = m181
REMARK  9 active torsions:
REMARK  status: ('A' for Active; 'I' for Inactive)
REMARK    1  A    between atoms: C_1  and  O_2
REMARK    2  A    between atoms: O_2  and  C_3
REMARK    3  A    between atoms: C_3  and  C_4
REMARK    4  A    between atoms: C_4  and  N_5
REMARK    5  A    between atoms: C_6  and  C_8
REMARK    6  A    between atoms: C_16  and  C_17
REMARK    7  A    between atoms: C_20  and  C_22
REMARK    8  A    between atoms: C_24  and  C_25
REMARK    9  A    between atoms: C_27  and  C_28
REMARK                            x       y       z     vdW  Elec       q    Type
REMARK                         _______ _______ _______ _____ _____    ______ ____
ROOT
ATOM      1  C   UNL     1       2.346   0.311  -0.009  0.00  0.00    +0.082 A 
ATOM      2  C   UNL     1       1.418   1.248   0.318  0.00  0.00    +0.011 A 
ATOM      3  C   UNL     1       1.763   2.611   0.304  0.00  0.00    +0.014 A 
ATOM      4  C   UNL     1       3.096   2.899  -0.076  0.00  0.00    +0.109 A 
ATOM      5  N   UNL     1       3.564   4.125  -0.141  0.00  0.00    -0.248 NA
ATOM      6  C   UNL     1       2.805   5.164   0.148  0.00  0.00    +0.112 A 
ATOM      7  C   UNL     1       1.483   4.983   0.530  0.00  0.00    +0.020 A 
ATOM      8  C   UNL     1       0.949   3.732   0.615  0.00  0.00    +0.012 A 
ATOM      9  S   UNL     1       3.790   1.292  -0.379  0.00  0.00    -0.064 S 
ENDROOT
BRANCH   2  10
ATOM     10  C   UNL     1       0.023   0.827   0.703  0.00  0.00    +0.167 C 
ATOM     11  O   UNL     1       0.092  -0.274   1.608  0.00  0.00    -0.369 OA
ATOM     12  C   UNL     1      -1.224  -0.510   2.107  0.00  0.00    +0.179 C 
ATOM     13  C   UNL     1      -2.112  -1.049   0.980  0.00  0.00    +0.136 C 
ATOM     14  N   UNL     1      -2.071  -0.089  -0.136  0.00  0.00    -0.290 N 
ATOM     15  C   UNL     1      -3.199   0.317  -0.752  0.00  0.00    +0.284 C 
ATOM     16  O   UNL     1      -3.153   1.205  -1.583  0.00  0.00    -0.267 OA
ATOM     17  C   UNL     1      -0.750   0.411  -0.554  0.00  0.00    +0.144 C 
BRANCH  15  18
ATOM     18  C   UNL     1      -4.482  -0.312  -0.421  0.00  0.00    +0.212 A 
ATOM     19  C   UNL     1      -5.715   0.078  -0.853  0.00  0.00    +0.089 A 
ATOM     20  C   UNL     1      -6.014   1.238  -1.768  0.00  0.00    +0.070 C 
ATOM     21  N   UNL     1      -6.611  -0.761  -0.323  0.00  0.00    -0.218 NA
ATOM     22  C   UNL     1      -5.985  -1.638   0.417  0.00  0.00    +0.194 A 
ATOM     23  C   UNL     1      -6.639  -2.752   1.192  0.00  0.00    +0.109 C 
ATOM     24  O   UNL     1      -4.673  -1.388   0.377  0.00  0.00    -0.435 OA
ENDBRANCH  15  18
ENDBRANCH   2  10
BRANCH   1  27
ATOM     25  N   UNL     1       3.240  -1.924  -0.410  0.00  0.00    -0.309 N 
ATOM     26  H   UNL     1       4.090  -1.517  -0.638  0.00  0.00    +0.149 HD
ATOM     27  C   UNL     1       2.196  -1.150  -0.053  0.00  0.00    +0.251 C 
ATOM     28  O   UNL     1       1.130  -1.661   0.233  0.00  0.00    -0.270 OA
BRANCH  25  29
ATOM     29  C   UNL     1       3.091  -3.381  -0.454  0.00  0.00    +0.132 C 
BRANCH  29  30
ATOM     30  C   UNL     1       4.414  -4.017  -0.886  0.00  0.00    +0.178 C 
BRANCH  30  32
ATOM     31  C   UNL     1       6.614  -4.383  -0.349  0.00  0.00    +0.194 C 
ATOM     32  O   UNL     1       5.409  -3.769   0.109  0.00  0.00    -0.381 OA
ENDBRANCH  30  32
ENDBRANCH  29  30
ENDBRANCH  25  29
ENDBRANCH   1  27
TORSDOF 6
