REMARK  Name = m182
REMARK  7 active torsions:
REMARK  status: ('A' for Active; 'I' for Inactive)
REMARK    1  A    between atoms: C_1  and  C_2
REMARK    2  A    between atoms: C_3  and  C_4
REMARK    3  A    between atoms: C_6  and  C_7
REMARK    4  A    between atoms: N_19  and  C_20
REMARK    5  A    between atoms: C_20  and  C_21
REMARK    6  A    between atoms: N_23  and  C_24
REMARK    7  A    between atoms: C_24  and  C_25
REMARK                            x       y       z     vdW  Elec       q    Type
REMARK                         _______ _______ _______ _____ _____    ______ ____
ROOT
ATOM      1  C   UNL     1       0.930   1.364  -1.290  0.00  0.00    +0.046 C 
ATOM      2  C   UNL     1       1.067  -0.007  -0.680  0.00  0.00    -0.017 A 
ATOM      3  C   UNL     1      -0.053  -0.837  -0.561  0.00  0.00    +0.076 A 
ATOM      4  C   UNL     1       0.180  -2.104   0.018  0.00  0.00    +0.116 A 
ATOM      5  N   UNL     1      -0.796  -2.988   0.185  0.00  0.00    -0.230 NA
ATOM      6  C   UNL     1      -2.021  -2.732  -0.185  0.00  0.00    +0.203 A 
ATOM      7  N   UNL     1      -2.365  -1.552  -0.759  0.00  0.00    -0.290 N 
ATOM      8  S   UNL     1       1.918  -2.075   0.378  0.00  0.00    -0.063 S 
ATOM      9  C   UNL     1      -1.452  -0.585  -0.973  0.00  0.00    +0.263 A 
ATOM     10  O   UNL     1      -1.771   0.472  -1.488  0.00  0.00    -0.267 OA
ATOM     11  C   UNL     1       2.281  -0.439  -0.237  0.00  0.00    +0.082 A 
ENDROOT
BRANCH  11  12
ATOM     12  C   UNL     1       3.569   0.266  -0.259  0.00  0.00    +0.266 A 
ATOM     13  O   UNL     1       3.798   1.501  -0.738  0.00  0.00    -0.332 OA
ATOM     14  N   UNL     1       4.970   1.785  -0.602  0.00  0.00    -0.056 NA
ATOM     15  C   UNL     1       5.618   0.794  -0.044  0.00  0.00    +0.202 A 
ATOM     16  N   UNL     1       4.729  -0.193   0.184  0.00  0.00    -0.187 NA
BRANCH  15  17
ATOM     17  C   UNL     1       7.067   0.764   0.279  0.00  0.00    +0.025 A 
ATOM     18  C   UNL     1       7.644  -0.356   0.883  0.00  0.00    +0.031 A 
ATOM     19  C   UNL     1       8.996  -0.345   1.161  0.00  0.00    +0.111 A 
ATOM     20  N   UNL     1       9.737   0.708   0.874  0.00  0.00    -0.263 NA
ATOM     21  C   UNL     1       9.231   1.786   0.309  0.00  0.00    +0.111 A 
ATOM     22  C   UNL     1       7.889   1.856  -0.007  0.00  0.00    +0.031 A 
ENDBRANCH  15  17
ENDBRANCH  11  12
BRANCH   7  23
ATOM     23  C   UNL     1      -3.757  -1.324  -1.152  0.00  0.00    +0.221 C 
BRANCH  23  24
ATOM     24  C   UNL     1      -4.509  -0.703  -0.004  0.00  0.00    +0.233 C 
ATOM     25  N   UNL     1      -5.816  -0.402  -0.137  0.00  0.00    -0.311 N 
ATOM     26  H   UNL     1      -6.273  -0.587  -0.973  0.00  0.00    +0.149 HD
ATOM     27  O   UNL     1      -3.938  -0.472   1.041  0.00  0.00    -0.274 OA
BRANCH  25  28
ATOM     28  C   UNL     1      -6.547   0.202   0.979  0.00  0.00    +0.135 C 
BRANCH  28  29
ATOM     29  C   UNL     1      -8.001   0.440   0.568  0.00  0.00    +0.135 C 
ATOM     30  O   UNL     1      -8.053   1.363  -0.533  0.00  0.00    -0.375 OA
ATOM     31  C   UNL     1      -9.254   2.148  -0.368  0.00  0.00    +0.160 C 
ATOM     32  C   UNL     1      -9.307   2.411   1.158  0.00  0.00    +0.031 C 
ATOM     33  C   UNL     1      -8.779   1.076   1.736  0.00  0.00    +0.035 C 
ENDBRANCH  28  29
ENDBRANCH  25  28
ENDBRANCH  23  24
ENDBRANCH   7  23
TORSDOF 6
