REMARK  Name = m183
REMARK  5 active torsions:
REMARK  status: ('A' for Active; 'I' for Inactive)
REMARK    1  A    between atoms: C_1  and  O_2
REMARK    2  A    between atoms: O_2  and  C_3
REMARK    3  A    between atoms: C_6  and  C_7
REMARK    4  A    between atoms: C_11  and  C_12
REMARK    5  A    between atoms: C_17  and  C_18
REMARK                            x       y       z     vdW  Elec       q    Type
REMARK                         _______ _______ _______ _____ _____    ______ ____
ROOT
ATOM      1  C   UNL     1       3.175  -0.243   0.009  0.00  0.00    +0.103 A 
ATOM      2  C   UNL     1       1.863  -0.689   0.000  0.00  0.00    +0.134 A 
ATOM      3  N   UNL     1       1.916  -2.088  -0.046  0.00  0.00    -0.303 N 
ATOM      4  C   UNL     1       0.941  -3.182  -0.118  0.00  0.00    +0.148 C 
ATOM      5  C   UNL     1       1.546  -4.525   0.357  0.00  0.00    +0.197 C 
ATOM      6  S   UNL     1       3.318  -4.180  -0.010  0.00  0.00    +0.032 S 
ATOM      7  O   UNL     1       4.162  -4.464   1.096  0.00  0.00    -0.166 OA
ATOM      8  O   UNL     1       3.665  -4.508  -1.349  0.00  0.00    -0.166 OA
ATOM      9  C   UNL     1       3.227  -2.399  -0.024  0.00  0.00    +0.252 A 
ATOM     10  N   UNL     1       3.964  -1.327  -0.009  0.00  0.00    -0.211 NA
ENDROOT
BRANCH   2  11
ATOM     11  C   UNL     1       0.657   0.140   0.025  0.00  0.00    +0.268 C 
ATOM     12  N   UNL     1      -0.559  -0.439   0.003  0.00  0.00    -0.259 N 
ATOM     13  H   UNL     1      -0.636  -1.406  -0.029  0.00  0.00    +0.157 HD
ATOM     14  C   UNL     1      -1.703   0.347   0.026  0.00  0.00    +0.165 A 
ATOM     15  S   UNL     1      -1.850   2.127   0.093  0.00  0.00    -0.060 S 
ATOM     16  C   UNL     1      -3.637   2.204   0.084  0.00  0.00    +0.076 A 
ATOM     17  C   UNL     1      -3.947   0.873   0.039  0.00  0.00    +0.080 A 
ATOM     18  N   UNL     1      -2.971  -0.021   0.011  0.00  0.00    -0.225 NA
ATOM     19  O   UNL     1       0.753   1.353   0.065  0.00  0.00    -0.268 OA
BRANCH  17  20
ATOM     20  C   UNL     1      -5.364   0.435   0.022  0.00  0.00    +0.001 A 
ATOM     21  C   UNL     1      -6.305   1.082   0.822  0.00  0.00    +0.013 A 
ATOM     22  C   UNL     1      -7.623   0.675   0.798  0.00  0.00    +0.039 A 
ATOM     23  C   UNL     1      -8.010  -0.382  -0.011  0.00  0.00    +0.123 A 
ATOM     24  F   UNL     1      -9.301  -0.780  -0.027  0.00  0.00    -0.205 F 
ATOM     25  C   UNL     1      -7.077  -1.031  -0.802  0.00  0.00    +0.039 A 
ATOM     26  C   UNL     1      -5.758  -0.627  -0.790  0.00  0.00    +0.013 A 
ENDBRANCH  17  20
ENDBRANCH   2  11
BRANCH   1  30
ATOM     27  C   UNL     1       4.458   3.809   0.098  0.00  0.00    +0.120 A 
ATOM     28  C   UNL     1       3.370   3.443  -0.684  0.00  0.00    +0.046 A 
ATOM     29  C   UNL     1       2.955   2.130  -0.720  0.00  0.00    +0.013 A 
ATOM     30  C   UNL     1       3.622   1.168   0.040  0.00  0.00    +0.003 A 
ATOM     31  C   UNL     1       4.711   1.539   0.829  0.00  0.00    +0.013 A 
ATOM     32  C   UNL     1       5.124   2.854   0.855  0.00  0.00    +0.046 A 
BRANCH  27  34
ATOM     33  C   UNL     1       3.998   5.831  -0.742  0.00  0.00    +0.277 C 
ATOM     34  O   UNL     1       4.868   5.103   0.126  0.00  0.00    -0.495 OA
ENDBRANCH  27  34
ENDBRANCH   1  30
TORSDOF 4
