REMARK  Name = m184
REMARK  7 active torsions:
REMARK  status: ('A' for Active; 'I' for Inactive)
REMARK    1  A    between atoms: C_1  and  C_2
REMARK    2  A    between atoms: C_2  and  O_3
REMARK    3  A    between atoms: O_3  and  C_4
REMARK    4  A    between atoms: C_7  and  C_8
REMARK    5  A    between atoms: N_10  and  C_11
REMARK    6  A    between atoms: C_15  and  C_16
REMARK    7  A    between atoms: C_16  and  C_17
REMARK                            x       y       z     vdW  Elec       q    Type
REMARK                         _______ _______ _______ _____ _____    ______ ____
ROOT
ATOM      1  C   UNL     1      -0.676  -0.807   0.225  0.00  0.00    +0.034 A 
ATOM      2  C   UNL     1      -1.703  -0.010  -0.264  0.00  0.00    +0.029 A 
ATOM      3  C   UNL     1      -3.013  -0.438  -0.168  0.00  0.00    -0.014 A 
ATOM      4  C   UNL     1      -3.303  -1.654   0.424  0.00  0.00    +0.006 A 
ATOM      5  C   UNL     1      -2.283  -2.447   0.917  0.00  0.00    +0.002 A 
ATOM      6  C   UNL     1      -0.971  -2.028   0.819  0.00  0.00    +0.023 A 
ENDROOT
BRANCH   3   7
ATOM      7  C   UNL     1      -4.127   0.424  -0.703  0.00  0.00    +0.135 C 
ATOM      8  C   UNL     1      -4.198   1.735   0.055  0.00  0.00    +0.248 C 
ATOM      9  O   UNL     1      -3.339   2.588   0.129  0.00  0.00    -0.273 OA
ATOM     10  N   UNL     1      -5.419   1.753   0.633  0.00  0.00    -0.238 N 
ATOM     11  H   UNL     1      -5.748   2.478   1.186  0.00  0.00    +0.159 HD
ATOM     12  C   UNL     1      -6.118   0.650   0.345  0.00  0.00    +0.307 C 
ATOM     13  O   UNL     1      -7.245   0.439   0.750  0.00  0.00    -0.252 OA
ATOM     14  N   UNL     1      -5.436  -0.201  -0.442  0.00  0.00    -0.282 N 
ATOM     15  H   UNL     1      -5.745  -1.058  -0.775  0.00  0.00    +0.152 HD
ATOM     16  C   UNL     1      -3.939   0.676  -2.200  0.00  0.00    +0.047 C 
ENDBRANCH   3   7
BRANCH   1  18
ATOM     17  C   UNL     1       1.629  -1.269  -0.138  0.00  0.00    +0.250 C 
ATOM     18  N   UNL     1       0.651  -0.379   0.125  0.00  0.00    -0.281 N 
ATOM     19  H   UNL     1       0.869   0.559   0.246  0.00  0.00    +0.155 HD
ATOM     20  O   UNL     1       1.347  -2.425  -0.389  0.00  0.00    -0.270 OA
BRANCH  17  24
ATOM     21  C   UNL     1       5.625   0.025  -0.073  0.00  0.00    +0.215 A 
ATOM     22  N   UNL     1       4.636   0.866   0.185  0.00  0.00    -0.221 NA
ATOM     23  C   UNL     1       3.376   0.483   0.165  0.00  0.00    +0.127 A 
ATOM     24  C   UNL     1       3.041  -0.841  -0.122  0.00  0.00    +0.055 A 
ATOM     25  C   UNL     1       4.066  -1.759  -0.395  0.00  0.00    +0.020 A 
ATOM     26  C   UNL     1       5.371  -1.311  -0.367  0.00  0.00    +0.068 A 
BRANCH  21  27
ATOM     27  O   UNL     1       6.905   0.471  -0.045  0.00  0.00    -0.477 OA
BRANCH  27  29
ATOM     28  C   UNL     1       8.271   2.429   0.329  0.00  0.00    +0.048 C 
ATOM     29  C   UNL     1       6.851   1.861   0.280  0.00  0.00    +0.227 C 
ENDBRANCH  27  29
ENDBRANCH  21  27
ENDBRANCH  17  24
ENDBRANCH   1  18
TORSDOF 5
