REMARK  Name = m185
REMARK  6 active torsions:
REMARK  status: ('A' for Active; 'I' for Inactive)
REMARK    1  A    between atoms: C_1  and  C_2
REMARK    2  A    between atoms: C_2  and  C_3
REMARK    3  A    between atoms: C_3  and  N_4
REMARK    4  A    between atoms: N_7  and  C_8
REMARK    5  A    between atoms: C_16  and  N_17
REMARK    6  A    between atoms: C_18  and  C_20
REMARK                            x       y       z     vdW  Elec       q    Type
REMARK                         _______ _______ _______ _____ _____    ______ ____
ROOT
ATOM      1  N   UNL     1       4.489   0.864   0.258  0.00  0.00    -0.279 N 
ATOM      2  C   UNL     1       3.148   0.561   0.317  0.00  0.00    +0.132 A 
ATOM      3  C   UNL     1       2.757  -0.770   0.155  0.00  0.00    +0.124 A 
ATOM      4  C   UNL     1       1.303  -0.799   0.255  0.00  0.00    +0.171 A 
ATOM      5  C   UNL     1       0.905   0.515   0.467  0.00  0.00    +0.087 A 
ATOM      6  C   UNL     1      -0.463   0.808   0.606  0.00  0.00    +0.060 A 
ATOM      7  C   UNL     1      -1.377  -0.222   0.529  0.00  0.00    +0.121 A 
ATOM      8  C   UNL     1      -0.920  -1.538   0.313  0.00  0.00    +0.359 A 
ATOM      9  O   UNL     1      -1.722  -2.454   0.245  0.00  0.00    -0.243 OA
ATOM     10  O   UNL     1       0.394  -1.790   0.184  0.00  0.00    -0.418 OA
ATOM     11  C   UNL     1       3.788  -1.784  -0.060  0.00  0.00    +0.269 A 
ATOM     12  O   UNL     1       3.490  -2.956  -0.201  0.00  0.00    -0.267 OA
ATOM     13  N   UNL     1       5.080  -1.389  -0.098  0.00  0.00    -0.263 N 
ATOM     14  C   UNL     1       6.135  -2.382  -0.311  0.00  0.00    +0.157 C 
ATOM     15  N   UNL     1       2.036   1.316   0.495  0.00  0.00    -0.338 N 
ATOM     16  H   UNL     1       2.033   2.276   0.629  0.00  0.00    +0.167 HD
ATOM     17  C   UNL     1       5.407  -0.096   0.059  0.00  0.00    +0.333 A 
ATOM     18  O   UNL     1       6.581   0.218   0.019  0.00  0.00    -0.246 OA
ENDROOT
BRANCH   7  19
ATOM     19  N   UNL     1      -2.748   0.037   0.664  0.00  0.00    -0.276 N 
ATOM     20  H   UNL     1      -3.085   0.454   1.473  0.00  0.00    +0.155 HD
ATOM     21  C   UNL     1      -3.598  -0.292  -0.329  0.00  0.00    +0.248 C 
ATOM     22  O   UNL     1      -3.187  -0.879  -1.311  0.00  0.00    -0.270 OA
BRANCH  21  23
ATOM     23  C   UNL     1      -5.028   0.062  -0.224  0.00  0.00    +0.037 A 
ATOM     24  C   UNL     1      -5.504   0.731   0.905  0.00  0.00    +0.016 A 
ATOM     25  C   UNL     1      -6.839   1.064   0.995  0.00  0.00    +0.039 A 
ATOM     26  C   UNL     1      -7.710   0.724  -0.029  0.00  0.00    +0.123 A 
ATOM     27  F   UNL     1      -9.019   1.047   0.067  0.00  0.00    -0.205 F 
ATOM     28  C   UNL     1      -7.244   0.054  -1.150  0.00  0.00    +0.039 A 
ATOM     29  C   UNL     1      -5.911  -0.278  -1.252  0.00  0.00    +0.016 A 
ENDBRANCH  21  23
ENDBRANCH   7  19
BRANCH   1  30
ATOM     30  C   UNL     1       4.922   2.254   0.420  0.00  0.00    +0.128 C 
BRANCH  30  32
ATOM     31  C   UNL     1       5.424   4.388  -0.779  0.00  0.00    +0.005 C 
ATOM     32  C   UNL     1       4.971   2.936  -0.948  0.00  0.00    +0.018 C 
ENDBRANCH  30  32
ENDBRANCH   1  30
TORSDOF 4
