REMARK  Name = m186
REMARK  7 active torsions:
REMARK  status: ('A' for Active; 'I' for Inactive)
REMARK    1  A    between atoms: C_1  and  N_2
REMARK    2  A    between atoms: N_2  and  C_3
REMARK    3  A    between atoms: C_4  and  C_6
REMARK    4  A    between atoms: C_14  and  C_15
REMARK    5  A    between atoms: N_17  and  S_18
REMARK    6  A    between atoms: S_18  and  C_21
REMARK    7  A    between atoms: N_24  and  C_25
REMARK                            x       y       z     vdW  Elec       q    Type
REMARK                         _______ _______ _______ _____ _____    ______ ____
ROOT
ATOM      1  C   UNL     1       0.814  -0.507  -1.059  0.00  0.00    +0.166 C 
ATOM      2  O   UNL     1       0.798   0.444  -2.122  0.00  0.00    -0.369 OA
ATOM      3  C   UNL     1      -0.267   0.092  -3.004  0.00  0.00    +0.178 C 
ATOM      4  C   UNL     1      -1.611   0.335  -2.309  0.00  0.00    +0.137 C 
ATOM      5  N   UNL     1      -1.619  -0.425  -1.047  0.00  0.00    -0.172 NA
ATOM      6  C   UNL     1      -0.431  -0.320  -0.184  0.00  0.00    +0.146 C 
ENDROOT
BRANCH   1   8
ATOM      7  C   UNL     1       2.429   0.949   0.142  0.00  0.00    +0.082 A 
ATOM      8  C   UNL     1       2.051  -0.305  -0.222  0.00  0.00    +0.011 A 
ATOM      9  C   UNL     1       2.820  -1.411   0.177  0.00  0.00    +0.014 A 
ATOM     10  C   UNL     1       3.959  -1.112   0.964  0.00  0.00    +0.109 A 
ATOM     11  N   UNL     1       4.771  -2.040   1.416  0.00  0.00    -0.248 NA
ATOM     12  C   UNL     1       4.564  -3.317   1.156  0.00  0.00    +0.112 A 
ATOM     13  C   UNL     1       3.474  -3.710   0.393  0.00  0.00    +0.020 A 
ATOM     14  C   UNL     1       2.600  -2.786  -0.101  0.00  0.00    +0.012 A 
ATOM     15  S   UNL     1       3.907   0.659   1.098  0.00  0.00    -0.064 S 
BRANCH   7  18
ATOM     16  C   UNL     1       1.777   4.664  -0.081  0.00  0.00    +0.132 C 
ATOM     17  N   UNL     1       2.478   3.377  -0.099  0.00  0.00    -0.303 N 
ATOM     18  C   UNL     1       1.776   2.229  -0.170  0.00  0.00    +0.253 C 
ATOM     19  O   UNL     1       0.603   2.251  -0.491  0.00  0.00    -0.269 OA
ATOM     20  C   UNL     1       3.941   3.340  -0.041  0.00  0.00    +0.132 C 
ENDBRANCH   7  18
ENDBRANCH   1   8
BRANCH   5  21
ATOM     21  S   UNL     1      -2.915  -1.362  -0.616  0.00  0.00    +0.064 S 
ATOM     22  O   UNL     1      -2.410  -2.320   0.304  0.00  0.00    -0.153 OA
ATOM     23  O   UNL     1      -3.594  -1.664  -1.828  0.00  0.00    -0.153 OA
BRANCH  21  24
ATOM     24  C   UNL     1      -4.016  -0.344   0.309  0.00  0.00    +0.143 A 
ATOM     25  C   UNL     1      -4.004  -0.173   1.651  0.00  0.00    +0.136 A 
ATOM     26  N   UNL     1      -5.000   0.681   1.966  0.00  0.00    -0.273 N 
ATOM     27  C   UNL     1      -5.344   1.147   3.312  0.00  0.00    +0.172 C 
ATOM     28  N   UNL     1      -5.652   1.040   0.778  0.00  0.00    -0.178 NA
ATOM     29  C   UNL     1      -5.061   0.425  -0.214  0.00  0.00    +0.162 A 
ENDBRANCH  21  24
ENDBRANCH   5  21
TORSDOF 4
