REMARK  Name = m187
REMARK  7 active torsions:
REMARK  status: ('A' for Active; 'I' for Inactive)
REMARK    1  A    between atoms: C_2  and  C_7
REMARK    2  A    between atoms: N_3  and  C_4
REMARK    3  A    between atoms: C_4  and  C_5
REMARK    4  A    between atoms: C_5  and  O_6
REMARK    5  A    between atoms: C_15  and  C_16
REMARK    6  A    between atoms: C_19  and  C_21
REMARK    7  A    between atoms: C_23  and  C_24
REMARK                            x       y       z     vdW  Elec       q    Type
REMARK                         _______ _______ _______ _____ _____    ______ ____
ROOT
ATOM      1  C   UNL     1       2.949   0.196   0.047  0.00  0.00    +0.082 A 
ATOM      2  C   UNL     1       2.185  -0.886  -0.256  0.00  0.00    +0.011 A 
ATOM      3  C   UNL     1       2.740  -2.175  -0.189  0.00  0.00    +0.014 A 
ATOM      4  C   UNL     1       4.097  -2.237   0.214  0.00  0.00    +0.109 A 
ATOM      5  N   UNL     1       4.751  -3.370   0.328  0.00  0.00    -0.248 NA
ATOM      6  C   UNL     1       4.169  -4.525   0.069  0.00  0.00    +0.112 A 
ATOM      7  C   UNL     1       2.841  -4.569  -0.333  0.00  0.00    +0.020 A 
ATOM      8  C   UNL     1       2.118  -3.421  -0.467  0.00  0.00    +0.012 A 
ATOM      9  S   UNL     1       4.524  -0.531   0.467  0.00  0.00    -0.064 S 
ENDROOT
BRANCH   2  10
ATOM     10  C   UNL     1       0.747  -0.703  -0.667  0.00  0.00    +0.167 C 
ATOM     11  O   UNL     1       0.654   0.363  -1.611  0.00  0.00    -0.369 OA
ATOM     12  C   UNL     1      -0.675   0.370  -2.129  0.00  0.00    +0.179 C 
ATOM     13  C   UNL     1      -1.653   0.801  -1.030  0.00  0.00    +0.136 C 
ATOM     14  N   UNL     1      -1.476  -0.102   0.121  0.00  0.00    -0.291 N 
ATOM     15  C   UNL     1      -2.535  -0.660   0.741  0.00  0.00    +0.268 C 
ATOM     16  O   UNL     1      -2.362  -1.496   1.605  0.00  0.00    -0.268 OA
ATOM     17  C   UNL     1      -0.099  -0.372   0.567  0.00  0.00    +0.144 C 
BRANCH  15  18
ATOM     18  C   UNL     1      -3.912  -0.252   0.369  0.00  0.00    +0.168 A 
ATOM     19  N   UNL     1      -4.254   0.717  -0.444  0.00  0.00    -0.073 NA
ATOM     20  O   UNL     1      -5.455   0.802  -0.549  0.00  0.00    -0.359 OA
ATOM     21  C   UNL     1      -6.088  -0.110   0.202  0.00  0.00    +0.141 A 
ATOM     22  C   UNL     1      -5.128  -0.831   0.828  0.00  0.00    +0.081 A 
BRANCH  21  23
ATOM     23  C   UNL     1      -7.578  -0.297   0.327  0.00  0.00    +0.058 C 
ATOM     24  C   UNL     1      -8.472   0.500  -0.626  0.00  0.00    +0.012 C 
ATOM     25  C   UNL     1      -8.396   0.884   0.853  0.00  0.00    +0.012 C 
ENDBRANCH  21  23
ENDBRANCH  15  18
ENDBRANCH   2  10
BRANCH   1  27
ATOM     26  O   UNL     1       1.441   1.943  -0.278  0.00  0.00    -0.270 OA
ATOM     27  C   UNL     1       2.570   1.617   0.037  0.00  0.00    +0.251 C 
ATOM     28  N   UNL     1       3.472   2.557   0.383  0.00  0.00    -0.309 N 
ATOM     29  H   UNL     1       4.372   2.297   0.634  0.00  0.00    +0.149 HD
BRANCH  28  30
ATOM     30  C   UNL     1       3.092   3.972   0.379  0.00  0.00    +0.132 C 
BRANCH  30  31
ATOM     31  C   UNL     1       4.290   4.822   0.806  0.00  0.00    +0.174 C 
BRANCH  31  32
ATOM     32  O   UNL     1       5.329   4.707  -0.169  0.00  0.00    -0.393 OA
ATOM     33  H   UNL     1       6.063   5.257   0.139  0.00  0.00    +0.209 HD
ENDBRANCH  31  32
ENDBRANCH  30  31
ENDBRANCH  28  30
ENDBRANCH   1  27
TORSDOF 7
