REMARK  Name = m188
REMARK  8 active torsions:
REMARK  status: ('A' for Active; 'I' for Inactive)
REMARK    1  A    between atoms: C_1  and  O_2
REMARK    2  A    between atoms: O_2  and  C_3
REMARK    3  A    between atoms: C_3  and  C_4
REMARK    4  A    between atoms: C_4  and  N_5
REMARK    5  A    between atoms: C_6  and  C_8
REMARK    6  A    between atoms: C_16  and  C_17
REMARK    7  A    between atoms: C_20  and  C_22
REMARK    8  A    between atoms: C_27  and  N_28
REMARK                            x       y       z     vdW  Elec       q    Type
REMARK                         _______ _______ _______ _____ _____    ______ ____
ROOT
ATOM      1  C   UNL     1       2.278   0.374  -0.016  0.00  0.00    +0.082 A 
ATOM      2  C   UNL     1       1.284   1.257   0.268  0.00  0.00    +0.011 A 
ATOM      3  C   UNL     1       1.536   2.638   0.207  0.00  0.00    +0.014 A 
ATOM      4  C   UNL     1       2.851   3.003  -0.170  0.00  0.00    +0.109 A 
ATOM      5  N   UNL     1       3.236   4.255  -0.275  0.00  0.00    -0.248 NA
ATOM      6  C   UNL     1       2.404   5.250  -0.032  0.00  0.00    +0.112 A 
ATOM      7  C   UNL     1       1.093   4.993   0.344  0.00  0.00    +0.020 A 
ATOM      8  C   UNL     1       0.644   3.711   0.469  0.00  0.00    +0.012 A 
ATOM      9  S   UNL     1       3.656   1.438  -0.407  0.00  0.00    -0.064 S 
ENDROOT
BRANCH   2  10
ATOM     10  C   UNL     1      -0.084   0.754   0.654  0.00  0.00    +0.167 C 
ATOM     11  O   UNL     1       0.049  -0.306   1.599  0.00  0.00    -0.369 OA
ATOM     12  C   UNL     1      -1.254  -0.613   2.093  0.00  0.00    +0.179 C 
ATOM     13  C   UNL     1      -2.089  -1.252   0.977  0.00  0.00    +0.136 C 
ATOM     14  N   UNL     1      -2.100  -0.331  -0.172  0.00  0.00    -0.292 N 
ATOM     15  C   UNL     1      -3.245  -0.026  -0.814  0.00  0.00    +0.250 C 
ATOM     16  O   UNL     1      -3.244   0.813  -1.694  0.00  0.00    -0.270 OA
ATOM     17  C   UNL     1      -0.810   0.242  -0.595  0.00  0.00    +0.144 C 
BRANCH  15  18
ATOM     18  C   UNL     1      -4.499  -0.709  -0.448  0.00  0.00    +0.076 A 
ATOM     19  C   UNL     1      -5.678   0.025  -0.236  0.00  0.00    +0.128 A 
ATOM     20  N   UNL     1      -6.803  -0.594   0.086  0.00  0.00    -0.240 NA
ATOM     21  C   UNL     1      -6.859  -1.904   0.230  0.00  0.00    +0.113 A 
ATOM     22  C   UNL     1      -5.738  -2.693   0.043  0.00  0.00    +0.021 A 
ATOM     23  C   UNL     1      -4.536  -2.100  -0.300  0.00  0.00    +0.018 A 
BRANCH  19  24
ATOM     24  N   UNL     1      -5.666   1.401  -0.376  0.00  0.00    -0.343 N 
ATOM     25  H   UNL     1      -4.827   1.867  -0.515  0.00  0.00    +0.144 HD
ATOM     26  H   UNL     1      -6.497   1.900  -0.336  0.00  0.00    +0.144 HD
ENDBRANCH  19  24
ENDBRANCH  15  18
ENDBRANCH   2  10
BRANCH   1  29
ATOM     27  N   UNL     1       3.327  -1.808  -0.327  0.00  0.00    -0.309 N 
ATOM     28  H   UNL     1       4.150  -1.351  -0.561  0.00  0.00    +0.149 HD
ATOM     29  C   UNL     1       2.229  -1.095  -0.008  0.00  0.00    +0.251 C 
ATOM     30  O   UNL     1       1.196  -1.667   0.286  0.00  0.00    -0.270 OA
BRANCH  27  31
ATOM     31  C   UNL     1       3.278  -3.272  -0.319  0.00  0.00    +0.132 C 
BRANCH  31  32
ATOM     32  C   UNL     1       4.646  -3.830  -0.714  0.00  0.00    +0.178 C 
BRANCH  32  34
ATOM     33  C   UNL     1       6.860  -4.027  -0.143  0.00  0.00    +0.194 C 
ATOM     34  O   UNL     1       5.609  -3.479   0.281  0.00  0.00    -0.381 OA
ENDBRANCH  32  34
ENDBRANCH  31  32
ENDBRANCH  27  31
ENDBRANCH   1  29
TORSDOF 7
