REMARK  Name = m189
REMARK  8 active torsions:
REMARK  status: ('A' for Active; 'I' for Inactive)
REMARK    1  A    between atoms: C_1  and  O_2
REMARK    2  A    between atoms: O_2  and  C_3
REMARK    3  A    between atoms: C_7  and  C_8
REMARK    4  A    between atoms: N_12  and  C_13
REMARK    5  A    between atoms: N_12  and  C_14
REMARK    6  A    between atoms: C_16  and  C_17
REMARK    7  A    between atoms: C_20  and  C_22
REMARK    8  A    between atoms: N_27  and  C_28
REMARK                            x       y       z     vdW  Elec       q    Type
REMARK                         _______ _______ _______ _____ _____    ______ ____
ROOT
ATOM      1  C   UNL     1       3.065   0.037  -0.242  0.00  0.00    +0.024 A 
ATOM      2  C   UNL     1       2.175  -0.959   0.167  0.00  0.00    +0.084 A 
ATOM      3  N   UNL     1       2.590  -2.213   0.209  0.00  0.00    -0.216 NA
ATOM      4  C   UNL     1       3.834  -2.528  -0.120  0.00  0.00    +0.218 A 
ATOM      5  N   UNL     1       4.231  -3.852  -0.056  0.00  0.00    -0.306 N 
ATOM      6  C   UNL     1       3.281  -4.882   0.369  0.00  0.00    +0.132 C 
ATOM      7  C   UNL     1       5.602  -4.224  -0.415  0.00  0.00    +0.132 C 
ATOM      8  N   UNL     1       4.710  -1.611  -0.507  0.00  0.00    -0.222 NA
ATOM      9  C   UNL     1       4.369  -0.337  -0.580  0.00  0.00    +0.124 A 
ENDROOT
BRANCH   2  10
ATOM     10  C   UNL     1       0.758  -0.610   0.543  0.00  0.00    +0.185 C 
ATOM     11  O   UNL     1       0.402  -1.295   1.743  0.00  0.00    -0.367 OA
ATOM     12  C   UNL     1      -0.858  -0.785   2.177  0.00  0.00    +0.179 C 
ATOM     13  C   UNL     1      -1.953  -1.220   1.197  0.00  0.00    +0.136 C 
ATOM     14  N   UNL     1      -1.570  -0.766  -0.151  0.00  0.00    -0.292 N 
ATOM     15  C   UNL     1      -2.450  -0.136  -0.954  0.00  0.00    +0.248 C 
ATOM     16  O   UNL     1      -2.089   0.295  -2.032  0.00  0.00    -0.270 OA
ATOM     17  C   UNL     1      -0.188  -1.028  -0.588  0.00  0.00    +0.146 C 
BRANCH  15  18
ATOM     18  C   UNL     1      -3.851   0.032  -0.524  0.00  0.00    +0.053 A 
ATOM     19  C   UNL     1      -4.734  -1.025  -0.606  0.00  0.00    +0.101 A 
ATOM     20  N   UNL     1      -6.012  -0.878  -0.209  0.00  0.00    -0.318 N 
ATOM     21  C   UNL     1      -6.930  -2.016  -0.300  0.00  0.00    +0.152 C 
ATOM     22  C   UNL     1      -6.461   0.299   0.263  0.00  0.00    +0.251 A 
ATOM     23  O   UNL     1      -7.625   0.408   0.610  0.00  0.00    -0.268 OA
ATOM     24  C   UNL     1      -5.598   1.407   0.359  0.00  0.00    +0.071 A 
ATOM     25  C   UNL     1      -4.301   1.281  -0.030  0.00  0.00    +0.020 A 
ENDBRANCH  15  18
ENDBRANCH   2  10
BRANCH   1  28
ATOM     26  C   UNL     1       3.007   3.770   0.229  0.00  0.00    +0.121 A 
ATOM     27  C   UNL     1       3.413   2.447   0.291  0.00  0.00    +0.054 A 
ATOM     28  C   UNL     1       2.640   1.457  -0.310  0.00  0.00    -0.011 A 
ATOM     29  C   UNL     1       1.468   1.804  -0.980  0.00  0.00    +0.009 A 
ATOM     30  C   UNL     1       1.074   3.126  -1.041  0.00  0.00    +0.004 A 
ATOM     31  C   UNL     1       1.839   4.107  -0.440  0.00  0.00    +0.045 A 
BRANCH  26  33
ATOM     32  C   UNL     1       3.089   5.980   0.580  0.00  0.00    +0.277 C 
ATOM     33  O   UNL     1       3.756   4.739   0.819  0.00  0.00    -0.495 OA
ENDBRANCH  26  33
ENDBRANCH   1  28
TORSDOF 4
