REMARK  Name = m190
REMARK  6 active torsions:
REMARK  status: ('A' for Active; 'I' for Inactive)
REMARK    1  A    between atoms: C_1  and  C_2
REMARK    2  A    between atoms: C_2  and  C_3
REMARK    3  A    between atoms: C_3  and  O_4
REMARK    4  A    between atoms: O_4  and  C_5
REMARK    5  A    between atoms: C_8  and  C_9
REMARK    6  A    between atoms: C_25  and  C_26
REMARK                            x       y       z     vdW  Elec       q    Type
REMARK                         _______ _______ _______ _____ _____    ______ ____
ROOT
ATOM      1  C   UNL     1       1.409  -2.596   0.598  0.00  0.00    +0.063 C 
ATOM      2  C   UNL     1       0.224  -2.286  -0.280  0.00  0.00    +0.020 A 
ATOM      3  C   UNL     1      -0.114  -2.793  -1.527  0.00  0.00    +0.141 A 
ATOM      4  N   UNL     1      -1.238  -2.233  -1.908  0.00  0.00    -0.171 NA
ATOM      5  N   UNL     1      -1.656  -1.343  -0.905  0.00  0.00    -0.198 N 
ATOM      6  C   UNL     1      -2.809  -0.553  -0.929  0.00  0.00    +0.176 A 
ATOM      7  N   UNL     1      -3.078   0.232   0.086  0.00  0.00    -0.144 NA
ATOM      8  N   UNL     1      -4.222   1.033   0.079  0.00  0.00    -0.195 N 
ATOM      9  C   UNL     1      -5.082   0.995  -0.991  0.00  0.00    +0.178 A 
ATOM     10  N   UNL     1      -6.065   1.840  -0.723  0.00  0.00    -0.128 NA
ATOM     11  N   UNL     1      -5.858   2.381   0.426  0.00  0.00    -0.132 NA
ATOM     12  C   UNL     1      -4.795   0.147  -2.077  0.00  0.00    +0.054 A 
ATOM     13  C   UNL     1      -4.749   1.920   0.950  0.00  0.00    +0.152 A 
ATOM     14  C   UNL     1      -4.167   2.309   2.285  0.00  0.00    +0.090 C 
ATOM     15  C   UNL     1      -3.670  -0.616  -2.041  0.00  0.00    +0.054 A 
ATOM     16  C   UNL     1      -0.743  -1.388   0.088  0.00  0.00    +0.134 A 
ATOM     17  N   UNL     1      -0.684  -0.702   1.300  0.00  0.00    -0.270 N 
ATOM     18  H   UNL     1      -1.258   0.061   1.470  0.00  0.00    +0.156 HD
ATOM     19  C   UNL     1       0.195  -1.132   2.231  0.00  0.00    +0.219 C 
ATOM     20  O   UNL     1       0.344  -0.478   3.241  0.00  0.00    -0.275 OA
ATOM     21  C   UNL     1       0.994  -2.392   2.058  0.00  0.00    +0.109 C 
ENDROOT
BRANCH   1  25
ATOM     22  C   UNL     1       4.637   0.035  -0.361  0.00  0.00    +0.121 A 
ATOM     23  C   UNL     1       3.422   0.552   0.064  0.00  0.00    +0.046 A 
ATOM     24  C   UNL     1       2.379  -0.300   0.369  0.00  0.00    +0.008 A 
ATOM     25  C   UNL     1       2.548  -1.668   0.260  0.00  0.00    -0.039 A 
ATOM     26  C   UNL     1       3.759  -2.186  -0.159  0.00  0.00    +0.008 A 
ATOM     27  C   UNL     1       4.804  -1.338  -0.469  0.00  0.00    +0.046 A 
BRANCH  22  28
ATOM     28  O   UNL     1       5.664   0.872  -0.666  0.00  0.00    -0.492 OA
BRANCH  28  29
ATOM     29  C   UNL     1       5.188   2.203  -0.458  0.00  0.00    +0.229 C 
BRANCH  29  31
ATOM     30  C   UNL     1       5.791   4.625  -0.563  0.00  0.00    +0.007 C 
ATOM     31  C   UNL     1       6.301   3.200  -0.786  0.00  0.00    +0.038 C 
ENDBRANCH  29  31
ENDBRANCH  28  29
ENDBRANCH  22  28
ENDBRANCH   1  25
TORSDOF 4
