REMARK  Name = m191
REMARK  11 active torsions:
REMARK  status: ('A' for Active; 'I' for Inactive)
REMARK    1  A    between atoms: C_1  and  O_2
REMARK    2  A    between atoms: O_2  and  C_3
REMARK    3  A    between atoms: C_9  and  N_10
REMARK    4  A    between atoms: C_11  and  C_13
REMARK    5  A    between atoms: C_13  and  S_14
REMARK    6  A    between atoms: S_14  and  C_15
REMARK    7  A    between atoms: C_19  and  O_20
REMARK    8  A    between atoms: O_20  and  C_21
REMARK    9  A    between atoms: C_22  and  O_23
REMARK   10  A    between atoms: O_23  and  C_24
REMARK   11  A    between atoms: C_29  and  C_30
REMARK                            x       y       z     vdW  Elec       q    Type
REMARK                         _______ _______ _______ _____ _____    ______ ____
ROOT
ATOM      1  C   UNL     1      -1.040  -0.029   0.053  0.00  0.00    +0.192 A 
ATOM      2  N   UNL     1      -2.211  -0.737   0.068  0.00  0.00    -0.188 N 
ATOM      3  C   UNL     1      -3.413  -0.085   0.004  0.00  0.00    +0.168 A 
ATOM      4  N   UNL     1      -4.367  -0.989   0.042  0.00  0.00    -0.206 NA
ATOM      5  C   UNL     1      -3.827  -2.209   0.133  0.00  0.00    +0.182 A 
ATOM      6  C   UNL     1      -3.391   1.379  -0.090  0.00  0.00    +0.048 A 
ATOM      7  C   UNL     1      -2.133   2.023  -0.104  0.00  0.00    +0.081 A 
ATOM      8  C   UNL     1      -2.077   3.417  -0.192  0.00  0.00    +0.078 A 
ATOM      9  C   UNL     1      -3.246   4.147  -0.265  0.00  0.00    +0.164 A 
ATOM     10  C   UNL     1      -4.488   3.506  -0.252  0.00  0.00    +0.162 A 
ATOM     11  C   UNL     1      -4.563   2.131  -0.165  0.00  0.00    +0.063 A 
ATOM     12  N   UNL     1      -2.514  -2.103   0.155  0.00  0.00    -0.143 NA
ATOM     13  N   UNL     1      -1.004   1.277  -0.030  0.00  0.00    -0.222 NA
ENDROOT
BRANCH   5  14
ATOM     14  C   UNL     1      -4.587  -3.482   0.199  0.00  0.00    +0.021 A 
ATOM     15  C   UNL     1      -5.980  -3.467   0.172  0.00  0.00    +0.011 A 
ATOM     16  C   UNL     1      -6.681  -4.655   0.228  0.00  0.00    +0.001 A 
ATOM     17  C   UNL     1      -6.004  -5.857   0.322  0.00  0.00    +0.000 A 
ATOM     18  C   UNL     1      -4.622  -5.877   0.354  0.00  0.00    +0.001 A 
ATOM     19  C   UNL     1      -3.910  -4.696   0.293  0.00  0.00    +0.011 A 
ENDBRANCH   5  14
BRANCH  10  20
ATOM     20  O   UNL     1      -5.630   4.242  -0.325  0.00  0.00    -0.491 OA
ATOM     21  C   UNL     1      -6.720   3.318  -0.290  0.00  0.00    +0.277 C 
ENDBRANCH  10  20
BRANCH   9  22
ATOM     22  O   UNL     1      -3.188   5.502  -0.352  0.00  0.00    -0.491 OA
ATOM     23  C   UNL     1      -1.805   5.858  -0.344  0.00  0.00    +0.277 C 
ENDBRANCH   9  22
BRANCH   1  24
ATOM     24  S   UNL     1       0.482  -0.911   0.144  0.00  0.00    -0.077 S 
BRANCH  24  25
ATOM     25  C   UNL     1       1.650   0.470   0.081  0.00  0.00    +0.173 C 
BRANCH  25  28
ATOM     26  N   UNL     1       4.103   0.791   0.115  0.00  0.00    -0.282 N 
ATOM     27  H   UNL     1       3.948   1.749   0.135  0.00  0.00    +0.155 HD
ATOM     28  C   UNL     1       3.059  -0.061   0.147  0.00  0.00    +0.228 C 
ATOM     29  O   UNL     1       3.254  -1.255   0.229  0.00  0.00    -0.275 OA
BRANCH  26  31
ATOM     30  C   UNL     1       6.474   1.068   0.515  0.00  0.00    +0.141 A 
ATOM     31  C   UNL     1       5.412   0.295   0.053  0.00  0.00    +0.077 A 
ATOM     32  C   UNL     1       5.653  -0.964  -0.477  0.00  0.00    +0.047 A 
ATOM     33  C   UNL     1       6.946  -1.452  -0.537  0.00  0.00    +0.043 A 
ATOM     34 CL   UNL     1       7.247  -3.030  -1.195  0.00  0.00    -0.083 Cl
ATOM     35  C   UNL     1       8.000  -0.685  -0.072  0.00  0.00    +0.024 A 
ATOM     36  C   UNL     1       7.766   0.572   0.453  0.00  0.00    +0.049 A 
BRANCH  30  38
ATOM     37  C   UNL     1       7.513   2.834   1.418  0.00  0.00    +0.277 C 
ATOM     38  O   UNL     1       6.243   2.305   1.032  0.00  0.00    -0.493 OA
ENDBRANCH  30  38
ENDBRANCH  26  31
ENDBRANCH  25  28
ENDBRANCH  24  25
ENDBRANCH   1  24
TORSDOF 8
