REMARK  Name = m192
REMARK  8 active torsions:
REMARK  status: ('A' for Active; 'I' for Inactive)
REMARK    1  A    between atoms: C_1  and  C_2
REMARK    2  A    between atoms: C_2  and  O_3
REMARK    3  A    between atoms: O_3  and  C_4
REMARK    4  A    between atoms: C_5  and  O_6
REMARK    5  A    between atoms: O_6  and  C_7
REMARK    6  A    between atoms: C_11  and  C_12
REMARK    7  A    between atoms: C_19  and  C_20
REMARK    8  A    between atoms: C_29  and  C_30
REMARK                            x       y       z     vdW  Elec       q    Type
REMARK                         _______ _______ _______ _____ _____    ______ ____
ROOT
ATOM      1  C   UNL     1       1.593   0.733   0.029  0.00  0.00    +0.067 C 
ATOM      2  C   UNL     1       0.453  -0.231   0.234  0.00  0.00    +0.023 A 
ATOM      3  C   UNL     1       0.480  -1.573   0.587  0.00  0.00    +0.066 A 
ATOM      4  N   UNL     1      -0.757  -2.005   0.659  0.00  0.00    -0.168 NA
ATOM      5  N   UNL     1      -1.620  -0.941   0.350  0.00  0.00    -0.198 N 
ATOM      6  C   UNL     1      -3.017  -0.992   0.323  0.00  0.00    +0.176 A 
ATOM      7  N   UNL     1      -3.699   0.087   0.022  0.00  0.00    -0.144 NA
ATOM      8  N   UNL     1      -5.094   0.057  -0.017  0.00  0.00    -0.195 N 
ATOM      9  C   UNL     1      -5.765  -1.107   0.272  0.00  0.00    +0.178 A 
ATOM     10  N   UNL     1      -7.057  -0.841   0.164  0.00  0.00    -0.128 NA
ATOM     11  N   UNL     1      -7.210   0.393  -0.169  0.00  0.00    -0.132 NA
ATOM     12  C   UNL     1      -5.032  -2.263   0.601  0.00  0.00    +0.054 A 
ATOM     13  C   UNL     1      -6.044   0.977  -0.289  0.00  0.00    +0.152 A 
ATOM     14  C   UNL     1      -5.805   2.417  -0.664  0.00  0.00    +0.090 C 
ATOM     15  C   UNL     1      -3.674  -2.200   0.624  0.00  0.00    +0.054 A 
ATOM     16  C   UNL     1       1.718  -2.393   0.845  0.00  0.00    +0.068 C 
ATOM     17  C   UNL     1      -0.857   0.141   0.086  0.00  0.00    +0.134 A 
ATOM     18  N   UNL     1      -1.219   1.436  -0.281  0.00  0.00    -0.270 N 
ATOM     19  H   UNL     1      -2.144   1.726  -0.241  0.00  0.00    +0.156 HD
ATOM     20  C   UNL     1      -0.245   2.275  -0.693  0.00  0.00    +0.219 C 
ATOM     21  O   UNL     1      -0.504   3.451  -0.835  0.00  0.00    -0.275 OA
ATOM     22  C   UNL     1       1.150   1.796  -0.981  0.00  0.00    +0.109 C 
ENDROOT
BRANCH   1  24
ATOM     23  C   UNL     1       3.990   0.021   0.194  0.00  0.00    +0.166 A 
ATOM     24  C   UNL     1       2.793  -0.006  -0.504  0.00  0.00    +0.006 A 
ATOM     25  C   UNL     1       2.704  -0.700  -1.697  0.00  0.00    +0.008 A 
ATOM     26  C   UNL     1       3.803  -1.378  -2.189  0.00  0.00    +0.004 A 
ATOM     27  C   UNL     1       4.998  -1.361  -1.494  0.00  0.00    +0.049 A 
ATOM     28  C   UNL     1       5.096  -0.662  -0.302  0.00  0.00    +0.162 A 
BRANCH  28  29
ATOM     29  O   UNL     1       6.271  -0.644   0.383  0.00  0.00    -0.491 OA
ATOM     30  C   UNL     1       7.201  -1.425  -0.372  0.00  0.00    +0.277 C 
ENDBRANCH  28  29
BRANCH  23  31
ATOM     31  O   UNL     1       4.081   0.708   1.364  0.00  0.00    -0.488 OA
BRANCH  31  33
ATOM     32  C   UNL     1       4.614   2.867   2.311  0.00  0.00    +0.048 C 
ATOM     33  C   UNL     1       4.491   2.036   1.032  0.00  0.00    +0.226 C 
ENDBRANCH  31  33
ENDBRANCH  23  31
ENDBRANCH   1  24
TORSDOF 4
