REMARK  Name = m193
REMARK  10 active torsions:
REMARK  status: ('A' for Active; 'I' for Inactive)
REMARK    1  A    between atoms: C_1  and  O_2
REMARK    2  A    between atoms: O_2  and  C_3
REMARK    3  A    between atoms: C_5  and  C_6
REMARK    4  A    between atoms: C_13  and  C_14
REMARK    5  A    between atoms: C_23  and  C_24
REMARK    6  A    between atoms: C_29  and  O_30
REMARK    7  A    between atoms: O_30  and  C_31
REMARK    8  A    between atoms: C_31  and  C_32
REMARK    9  A    between atoms: C_32  and  C_33
REMARK   10  A    between atoms: C_32  and  C_34
REMARK                            x       y       z     vdW  Elec       q    Type
REMARK                         _______ _______ _______ _____ _____    ______ ____
ROOT
ATOM      1  C   UNL     1       0.635   1.681   0.177  0.00  0.00    +0.063 C 
ATOM      2  C   UNL     1      -0.343   0.632   0.643  0.00  0.00    +0.023 A 
ATOM      3  C   UNL     1      -0.157  -0.424   1.524  0.00  0.00    +0.066 A 
ATOM      4  N   UNL     1      -1.294  -1.071   1.637  0.00  0.00    -0.168 NA
ATOM      5  N   UNL     1      -2.249  -0.440   0.824  0.00  0.00    -0.198 N 
ATOM      6  C   UNL     1      -3.585  -0.822   0.672  0.00  0.00    +0.176 A 
ATOM      7  N   UNL     1      -4.370  -0.133  -0.122  0.00  0.00    -0.144 NA
ATOM      8  N   UNL     1      -5.706  -0.500  -0.292  0.00  0.00    -0.195 N 
ATOM      9  C   UNL     1      -6.213  -1.584   0.382  0.00  0.00    +0.178 A 
ATOM     10  N   UNL     1      -7.486  -1.690   0.036  0.00  0.00    -0.128 NA
ATOM     11  N   UNL     1      -7.779  -0.751  -0.794  0.00  0.00    -0.132 NA
ATOM     12  C   UNL     1      -5.371  -2.319   1.238  0.00  0.00    +0.054 A 
ATOM     13  C   UNL     1      -6.728  -0.004  -1.022  0.00  0.00    +0.152 A 
ATOM     14  C   UNL     1      -6.669   1.194  -1.935  0.00  0.00    +0.090 C 
ATOM     15  C   UNL     1      -4.073  -1.938   1.377  0.00  0.00    +0.054 A 
ATOM     16  C   UNL     1       1.129  -0.768   2.229  0.00  0.00    +0.068 C 
ATOM     17  C   UNL     1      -1.644   0.602   0.215  0.00  0.00    +0.134 A 
ATOM     18  N   UNL     1      -2.143   1.533  -0.694  0.00  0.00    -0.270 N 
ATOM     19  H   UNL     1      -3.094   1.592  -0.877  0.00  0.00    +0.156 HD
ATOM     20  C   UNL     1      -1.265   2.351  -1.312  0.00  0.00    +0.219 C 
ATOM     21  O   UNL     1      -1.687   3.287  -1.958  0.00  0.00    -0.275 OA
ATOM     22  C   UNL     1       0.220   2.138  -1.225  0.00  0.00    +0.109 C 
ENDROOT
BRANCH   1  27
ATOM     23  C   UNL     1       4.311   1.122   0.843  0.00  0.00    +0.162 A 
ATOM     24  C   UNL     1       4.573   0.019   0.036  0.00  0.00    +0.162 A 
ATOM     25  C   UNL     1       3.553  -0.544  -0.714  0.00  0.00    +0.050 A 
ATOM     26  C   UNL     1       2.281  -0.004  -0.667  0.00  0.00    +0.008 A 
ATOM     27  C   UNL     1       2.023   1.095   0.130  0.00  0.00    -0.036 A 
ATOM     28  C   UNL     1       3.035   1.659   0.885  0.00  0.00    +0.053 A 
BRANCH  23  30
ATOM     29  C   UNL     1       4.734   2.778   2.290  0.00  0.00    +0.277 C 
ATOM     30  O   UNL     1       5.308   1.675   1.585  0.00  0.00    -0.491 OA
ENDBRANCH  23  30
BRANCH  24  31
ATOM     31  O   UNL     1       5.824  -0.511  -0.009  0.00  0.00    -0.488 OA
BRANCH  31  32
ATOM     32  C   UNL     1       5.770  -1.624  -0.903  0.00  0.00    +0.232 C 
BRANCH  32  33
ATOM     33  C   UNL     1       7.153  -2.270  -1.000  0.00  0.00    +0.020 C 
ATOM     34  C   UNL     1       8.133  -1.284  -1.640  0.00  0.00    +0.010 C 
ATOM     35  C   UNL     1       7.068  -3.534  -1.858  0.00  0.00    +0.010 C 
ENDBRANCH  32  33
ENDBRANCH  31  32
ENDBRANCH  24  31
ENDBRANCH   1  27
TORSDOF 5
