REMARK  Name = m194
REMARK  11 active torsions:
REMARK  status: ('A' for Active; 'I' for Inactive)
REMARK    1  A    between atoms: C_1  and  C_2
REMARK    2  A    between atoms: C_2  and  C_3
REMARK    3  A    between atoms: C_3  and  C_4
REMARK    4  A    between atoms: C_4  and  O_5
REMARK    5  A    between atoms: O_5  and  C_6
REMARK    6  A    between atoms: C_9  and  C_10
REMARK    7  A    between atoms: C_17  and  C_18
REMARK    8  A    between atoms: C_27  and  C_28
REMARK    9  A    between atoms: C_32  and  O_33
REMARK   10  A    between atoms: O_33  and  C_34
REMARK   11  A    between atoms: C_34  and  C_35
REMARK                            x       y       z     vdW  Elec       q    Type
REMARK                         _______ _______ _______ _____ _____    ______ ____
ROOT
ATOM      1  C   UNL     1       0.440  -1.620   0.397  0.00  0.00    +0.063 C 
ATOM      2  C   UNL     1      -0.522  -0.749  -0.372  0.00  0.00    +0.023 A 
ATOM      3  C   UNL     1      -0.311   0.007  -1.515  0.00  0.00    +0.066 A 
ATOM      4  N   UNL     1      -1.441   0.595  -1.834  0.00  0.00    -0.168 NA
ATOM      5  N   UNL     1      -2.416   0.227  -0.893  0.00  0.00    -0.198 N 
ATOM      6  C   UNL     1      -3.753   0.638  -0.885  0.00  0.00    +0.176 A 
ATOM      7  N   UNL     1      -4.557   0.208   0.057  0.00  0.00    -0.144 NA
ATOM      8  N   UNL     1      -5.894   0.610   0.087  0.00  0.00    -0.195 N 
ATOM      9  C   UNL     1      -6.380   1.454  -0.882  0.00  0.00    +0.178 A 
ATOM     10  N   UNL     1      -7.658   1.656  -0.608  0.00  0.00    -0.128 NA
ATOM     11  N   UNL     1      -7.975   0.997   0.452  0.00  0.00    -0.132 NA
ATOM     12  C   UNL     1      -5.517   1.910  -1.896  0.00  0.00    +0.054 A 
ATOM     13  C   UNL     1      -6.933   0.346   0.908  0.00  0.00    +0.152 A 
ATOM     14  C   UNL     1      -6.900  -0.537   2.128  0.00  0.00    +0.090 C 
ATOM     15  C   UNL     1      -4.219   1.503  -1.893  0.00  0.00    +0.054 A 
ATOM     16  C   UNL     1       0.991   0.132  -2.264  0.00  0.00    +0.068 C 
ATOM     17  C   UNL     1      -1.830  -0.596   0.003  0.00  0.00    +0.134 A 
ATOM     18  N   UNL     1      -2.353  -1.225   1.131  0.00  0.00    -0.270 N 
ATOM     19  H   UNL     1      -3.308  -1.227   1.304  0.00  0.00    +0.156 HD
ATOM     20  C   UNL     1      -1.493  -1.830   1.977  0.00  0.00    +0.219 C 
ATOM     21  O   UNL     1      -1.934  -2.539   2.857  0.00  0.00    -0.275 OA
ATOM     22  C   UNL     1      -0.005  -1.653   1.863  0.00  0.00    +0.109 C 
ENDROOT
BRANCH   1  26
ATOM     23  C   UNL     1       4.384   0.011   0.127  0.00  0.00    +0.162 A 
ATOM     24  C   UNL     1       4.131  -1.278  -0.333  0.00  0.00    +0.162 A 
ATOM     25  C   UNL     1       2.853  -1.805  -0.238  0.00  0.00    +0.053 A 
ATOM     26  C   UNL     1       1.831  -1.047   0.301  0.00  0.00    -0.036 A 
ATOM     27  C   UNL     1       2.081   0.235   0.753  0.00  0.00    +0.008 A 
ATOM     28  C   UNL     1       3.355   0.765   0.667  0.00  0.00    +0.050 A 
BRANCH  23  29
ATOM     29  O   UNL     1       5.638   0.530   0.042  0.00  0.00    -0.488 OA
BRANCH  29  30
ATOM     30  C   UNL     1       5.575   1.852   0.582  0.00  0.00    +0.229 C 
BRANCH  30  31
ATOM     31  C   UNL     1       6.961   2.497   0.515  0.00  0.00    +0.041 C 
BRANCH  31  33
ATOM     32  C   UNL     1       8.279   4.556   1.027  0.00  0.00    +0.004 C 
ATOM     33  C   UNL     1       6.893   3.912   1.093  0.00  0.00    -0.000 C 
ENDBRANCH  31  33
ENDBRANCH  30  31
ENDBRANCH  29  30
ENDBRANCH  23  29
BRANCH  24  34
ATOM     34  O   UNL     1       5.138  -2.023  -0.863  0.00  0.00    -0.489 OA
BRANCH  34  35
ATOM     35  C   UNL     1       4.572  -3.284  -1.225  0.00  0.00    +0.226 C 
ATOM     36  C   UNL     1       5.658  -4.175  -1.832  0.00  0.00    +0.048 C 
ENDBRANCH  34  35
ENDBRANCH  24  34
ENDBRANCH   1  26
TORSDOF 7
