REMARK  Name = m195
REMARK  10 active torsions:
REMARK  status: ('A' for Active; 'I' for Inactive)
REMARK    1  A    between atoms: C_1  and  C_2
REMARK    2  A    between atoms: C_2  and  C_3
REMARK    3  A    between atoms: C_3  and  C_4
REMARK    4  A    between atoms: C_4  and  O_5
REMARK    5  A    between atoms: O_5  and  C_6
REMARK    6  A    between atoms: C_9  and  C_10
REMARK    7  A    between atoms: C_17  and  C_18
REMARK    8  A    between atoms: C_27  and  C_28
REMARK    9  A    between atoms: C_32  and  O_33
REMARK   10  A    between atoms: O_33  and  C_34
REMARK                            x       y       z     vdW  Elec       q    Type
REMARK                         _______ _______ _______ _____ _____    ______ ____
ROOT
ATOM      1  C   UNL     1       0.550  -1.802   0.031  0.00  0.00    +0.063 C 
ATOM      2  C   UNL     1      -0.389  -0.781  -0.561  0.00  0.00    +0.023 A 
ATOM      3  C   UNL     1      -0.167   0.148  -1.567  0.00  0.00    +0.066 A 
ATOM      4  N   UNL     1      -1.277   0.821  -1.759  0.00  0.00    -0.168 NA
ATOM      5  N   UNL     1      -2.251   0.337  -0.871  0.00  0.00    -0.198 N 
ATOM      6  C   UNL     1      -3.570   0.789  -0.765  0.00  0.00    +0.176 A 
ATOM      7  N   UNL     1      -4.375   0.237   0.110  0.00  0.00    -0.144 NA
ATOM      8  N   UNL     1      -5.695   0.676   0.236  0.00  0.00    -0.195 N 
ATOM      9  C   UNL     1      -6.162   1.687  -0.568  0.00  0.00    +0.178 A 
ATOM     10  N   UNL     1      -7.428   1.887  -0.236  0.00  0.00    -0.128 NA
ATOM     11  N   UNL     1      -7.753   1.072   0.707  0.00  0.00    -0.132 NA
ATOM     12  C   UNL     1      -5.298   2.275  -1.511  0.00  0.00    +0.054 A 
ATOM     13  C   UNL     1      -6.730   0.318   1.025  0.00  0.00    +0.152 A 
ATOM     14  C   UNL     1      -6.713  -0.758   2.080  0.00  0.00    +0.090 C 
ATOM     15  C   UNL     1      -4.018   1.826  -1.604  0.00  0.00    +0.054 A 
ATOM     16  C   UNL     1       1.127   0.348  -2.313  0.00  0.00    +0.068 C 
ATOM     17  C   UNL     1      -1.684  -0.645  -0.137  0.00  0.00    +0.134 A 
ATOM     18  N   UNL     1      -2.213  -1.434   0.882  0.00  0.00    -0.270 N 
ATOM     19  H   UNL     1      -3.164  -1.430   1.073  0.00  0.00    +0.156 HD
ATOM     20  C   UNL     1      -1.364  -2.203   1.596  0.00  0.00    +0.219 C 
ATOM     21  O   UNL     1      -1.819  -3.032   2.356  0.00  0.00    -0.275 OA
ATOM     22  C   UNL     1       0.127  -2.063   1.480  0.00  0.00    +0.109 C 
ENDROOT
BRANCH   1  26
ATOM     23  C   UNL     1       4.551  -0.294  -0.051  0.00  0.00    +0.162 A 
ATOM     24  C   UNL     1       4.240  -1.478  -0.713  0.00  0.00    +0.162 A 
ATOM     25  C   UNL     1       2.943  -1.966  -0.679  0.00  0.00    +0.053 A 
ATOM     26  C   UNL     1       1.960  -1.272   0.001  0.00  0.00    -0.036 A 
ATOM     27  C   UNL     1       2.269  -0.093   0.654  0.00  0.00    +0.008 A 
ATOM     28  C   UNL     1       3.561   0.397   0.629  0.00  0.00    +0.050 A 
BRANCH  24  29
ATOM     29  O   UNL     1       5.208  -2.159  -1.382  0.00  0.00    -0.491 OA
ATOM     30  C   UNL     1       4.587  -3.321  -1.936  0.00  0.00    +0.277 C 
ENDBRANCH  24  29
BRANCH  23  31
ATOM     31  O   UNL     1       5.823   0.187  -0.077  0.00  0.00    -0.488 OA
BRANCH  31  32
ATOM     32  C   UNL     1       5.820   1.402   0.676  0.00  0.00    +0.229 C 
BRANCH  32  33
ATOM     33  C   UNL     1       7.229   1.998   0.687  0.00  0.00    +0.041 C 
BRANCH  33  35
ATOM     34  C   UNL     1       8.636   3.894   1.505  0.00  0.00    +0.004 C 
ATOM     35  C   UNL     1       7.227   3.298   1.494  0.00  0.00    -0.000 C 
ENDBRANCH  33  35
ENDBRANCH  32  33
ENDBRANCH  31  32
ENDBRANCH  23  31
ENDBRANCH   1  26
TORSDOF 6
