REMARK  Name = m196
REMARK  8 active torsions:
REMARK  status: ('A' for Active; 'I' for Inactive)
REMARK    1  A    between atoms: C_2  and  C_3
REMARK    2  A    between atoms: C_3  and  O_4
REMARK    3  A    between atoms: O_4  and  C_5
REMARK    4  A    between atoms: C_8  and  C_9
REMARK    5  A    between atoms: C_16  and  C_17
REMARK    6  A    between atoms: C_26  and  C_27
REMARK    7  A    between atoms: C_31  and  O_32
REMARK    8  A    between atoms: O_32  and  C_33
REMARK                            x       y       z     vdW  Elec       q    Type
REMARK                         _______ _______ _______ _____ _____    ______ ____
ROOT
ATOM      1  C   UNL     1      -0.983  -1.518   0.369  0.00  0.00    +0.063 C 
ATOM      2  C   UNL     1       0.012  -0.421   0.653  0.00  0.00    +0.023 A 
ATOM      3  C   UNL     1      -0.170   0.796   1.293  0.00  0.00    +0.066 A 
ATOM      4  N   UNL     1       0.982   1.425   1.319  0.00  0.00    -0.168 NA
ATOM      5  N   UNL     1       1.944   0.618   0.691  0.00  0.00    -0.198 N 
ATOM      6  C   UNL     1       3.297   0.927   0.520  0.00  0.00    +0.176 A 
ATOM      7  N   UNL     1       4.086   0.071  -0.085  0.00  0.00    -0.144 NA
ATOM      8  N   UNL     1       5.439   0.363  -0.271  0.00  0.00    -0.195 N 
ATOM      9  C   UNL     1       5.957   1.549   0.190  0.00  0.00    +0.178 A 
ATOM     10  N   UNL     1       7.244   1.550  -0.117  0.00  0.00    -0.128 NA
ATOM     11  N   UNL     1       7.535   0.455  -0.727  0.00  0.00    -0.132 NA
ATOM     12  C   UNL     1       5.110   2.464   0.844  0.00  0.00    +0.054 A 
ATOM     13  C   UNL     1       6.469  -0.297  -0.843  0.00  0.00    +0.152 A 
ATOM     14  C   UNL     1       6.403  -1.653  -1.495  0.00  0.00    +0.090 C 
ATOM     15  C   UNL     1       3.796   2.151   1.004  0.00  0.00    +0.054 A 
ATOM     16  C   UNL     1      -1.469   1.309   1.860  0.00  0.00    +0.068 C 
ATOM     17  C   UNL     1       1.327  -0.511   0.282  0.00  0.00    +0.134 A 
ATOM     18  N   UNL     1       1.827  -1.620  -0.399  0.00  0.00    -0.270 N 
ATOM     19  H   UNL     1       2.782  -1.738  -0.527  0.00  0.00    +0.156 HD
ATOM     20  C   UNL     1       0.945  -2.525  -0.874  0.00  0.00    +0.219 C 
ATOM     21  O   UNL     1       1.359  -3.583  -1.299  0.00  0.00    -0.275 OA
ATOM     22  C   UNL     1      -0.534  -2.261  -0.893  0.00  0.00    +0.109 C 
ENDROOT
BRANCH   1  26
ATOM     23  C   UNL     1      -4.855   0.183  -0.263  0.00  0.00    +0.163 A 
ATOM     24  C   UNL     1      -4.659  -0.739   0.761  0.00  0.00    +0.162 A 
ATOM     25  C   UNL     1      -3.404  -1.292   0.959  0.00  0.00    +0.053 A 
ATOM     26  C   UNL     1      -2.348  -0.920   0.148  0.00  0.00    -0.036 A 
ATOM     27  C   UNL     1      -2.542   0.000  -0.866  0.00  0.00    +0.008 A 
ATOM     28  C   UNL     1      -3.793   0.552  -1.073  0.00  0.00    +0.050 A 
BRANCH  24  29
ATOM     29  O   UNL     1      -5.698  -1.104   1.558  0.00  0.00    -0.491 OA
ATOM     30  C   UNL     1      -5.188  -2.059   2.490  0.00  0.00    +0.277 C 
ENDBRANCH  24  29
BRANCH  23  31
ATOM     31  O   UNL     1      -6.086   0.725  -0.465  0.00  0.00    -0.476 OA
BRANCH  31  32
ATOM     32  C   UNL     1      -5.965   1.625  -1.568  0.00  0.00    +0.317 C 
BRANCH  32  34
ATOM     33  C   UNL     1      -8.313   2.745  -2.055  0.00  0.00    +0.007 C 
ATOM     34  C   UNL     1      -7.271   2.248  -1.839  0.00  0.00    -0.065 C 
ENDBRANCH  32  34
ENDBRANCH  31  32
ENDBRANCH  23  31
ENDBRANCH   1  26
TORSDOF 5
