REMARK  Name = m197
REMARK  10 active torsions:
REMARK  status: ('A' for Active; 'I' for Inactive)
REMARK    1  A    between atoms: C_1  and  C_2
REMARK    2  A    between atoms: C_2  and  C_3
REMARK    3  A    between atoms: C_3  and  O_4
REMARK    4  A    between atoms: O_4  and  C_5
REMARK    5  A    between atoms: C_8  and  C_9
REMARK    6  A    between atoms: C_16  and  C_17
REMARK    7  A    between atoms: C_26  and  C_27
REMARK    8  A    between atoms: C_31  and  O_32
REMARK    9  A    between atoms: O_32  and  C_33
REMARK   10  A    between atoms: C_33  and  C_34
REMARK                            x       y       z     vdW  Elec       q    Type
REMARK                         _______ _______ _______ _____ _____    ______ ____
ROOT
ATOM      1  C   UNL     1       0.785  -1.475   0.254  0.00  0.00    +0.063 C 
ATOM      2  C   UNL     1      -0.222  -0.577  -0.420  0.00  0.00    +0.023 A 
ATOM      3  C   UNL     1      -0.047   0.330  -1.455  0.00  0.00    +0.066 A 
ATOM      4  N   UNL     1      -1.208   0.880  -1.721  0.00  0.00    -0.168 NA
ATOM      5  N   UNL     1      -2.170   0.334  -0.855  0.00  0.00    -0.198 N 
ATOM      6  C   UNL     1      -3.530   0.654  -0.825  0.00  0.00    +0.176 A 
ATOM      7  N   UNL     1      -4.316   0.057   0.039  0.00  0.00    -0.144 NA
ATOM      8  N   UNL     1      -5.677   0.366   0.090  0.00  0.00    -0.195 N 
ATOM      9  C   UNL     1      -6.205   1.293  -0.775  0.00  0.00    +0.178 A 
ATOM     10  N   UNL     1      -7.498   1.376  -0.505  0.00  0.00    -0.128 NA
ATOM     11  N   UNL     1      -7.784   0.569   0.456  0.00  0.00    -0.132 NA
ATOM     12  C   UNL     1      -5.361   1.928  -1.705  0.00  0.00    +0.054 A 
ATOM     13  C   UNL     1      -6.707  -0.066   0.849  0.00  0.00    +0.152 A 
ATOM     14  C   UNL     1      -6.632  -1.093   1.949  0.00  0.00    +0.090 C 
ATOM     15  C   UNL     1      -4.040   1.608  -1.725  0.00  0.00    +0.054 A 
ATOM     16  C   UNL     1       1.254   0.632  -2.153  0.00  0.00    +0.068 C 
ATOM     17  C   UNL     1      -1.542  -0.556  -0.058  0.00  0.00    +0.134 A 
ATOM     18  N   UNL     1      -2.037  -1.356   0.971  0.00  0.00    -0.270 N 
ATOM     19  H   UNL     1      -2.992  -1.441   1.122  0.00  0.00    +0.156 HD
ATOM     20  C   UNL     1      -1.150  -2.007   1.753  0.00  0.00    +0.219 C 
ATOM     21  O   UNL     1      -1.555  -2.849   2.527  0.00  0.00    -0.275 OA
ATOM     22  C   UNL     1       0.324  -1.722   1.694  0.00  0.00    +0.109 C 
ENDROOT
BRANCH   1  26
ATOM     23  C   UNL     1       4.616   0.426   0.276  0.00  0.00    +0.162 A 
ATOM     24  C   UNL     1       4.455  -0.807  -0.348  0.00  0.00    +0.162 A 
ATOM     25  C   UNL     1       3.214  -1.423  -0.348  0.00  0.00    +0.053 A 
ATOM     26  C   UNL     1       2.136  -0.807   0.261  0.00  0.00    -0.036 A 
ATOM     27  C   UNL     1       2.295   0.422   0.875  0.00  0.00    +0.008 A 
ATOM     28  C   UNL     1       3.532   1.039   0.883  0.00  0.00    +0.050 A 
BRANCH  23  29
ATOM     29  O   UNL     1       5.834   1.032   0.283  0.00  0.00    -0.488 OA
BRANCH  29  30
ATOM     30  C   UNL     1       5.676   2.268   0.984  0.00  0.00    +0.229 C 
BRANCH  30  32
ATOM     31  C   UNL     1       6.848   4.326   1.778  0.00  0.00    +0.007 C 
ATOM     32  C   UNL     1       7.017   3.003   1.029  0.00  0.00    +0.038 C 
ENDBRANCH  30  32
ENDBRANCH  29  30
ENDBRANCH  23  29
BRANCH  24  33
ATOM     33  O   UNL     1       5.516  -1.413  -0.946  0.00  0.00    -0.489 OA
BRANCH  33  34
ATOM     34  C   UNL     1       5.040  -2.651  -1.476  0.00  0.00    +0.226 C 
ATOM     35  C   UNL     1       6.191  -3.386  -2.166  0.00  0.00    +0.048 C 
ENDBRANCH  33  34
ENDBRANCH  24  33
ENDBRANCH   1  26
TORSDOF 6
