REMARK  Name = m198
REMARK  7 active torsions:
REMARK  status: ('A' for Active; 'I' for Inactive)
REMARK    1  A    between atoms: C_1  and  C_2
REMARK    2  A    between atoms: C_2  and  N_3
REMARK    3  A    between atoms: C_6  and  C_7
REMARK    4  A    between atoms: C_10  and  C_11
REMARK    5  A    between atoms: C_16  and  C_17
REMARK    6  A    between atoms: N_27  and  C_28
REMARK    7  A    between atoms: C_31  and  C_32
REMARK                            x       y       z     vdW  Elec       q    Type
REMARK                         _______ _______ _______ _____ _____    ______ ____
ROOT
ATOM      1  C   UNL     1       0.716   0.646  -0.700  0.00  0.00    +0.228 A 
ATOM      2  N   UNL     1       0.114  -0.559  -0.774  0.00  0.00    -0.182 NA
ATOM      3  C   UNL     1      -1.149  -0.307  -1.046  0.00  0.00    +0.314 A 
ATOM      4  O   UNL     1      -1.272   1.026  -1.137  0.00  0.00    -0.328 OA
ATOM      5  N   UNL     1      -0.198   1.554  -0.936  0.00  0.00    -0.054 NA
ENDROOT
BRANCH   1  11
ATOM      6  N   UNL     1       3.983   2.463  -0.100  0.00  0.00    -0.258 N 
ATOM      7  C   UNL     1       4.791   1.409   0.115  0.00  0.00    +0.353 A 
ATOM      8  O   UNL     1       5.968   1.598   0.353  0.00  0.00    -0.244 OA
ATOM      9  N   UNL     1       4.319   0.150   0.082  0.00  0.00    -0.181 N 
ATOM     10  N   UNL     1       2.969  -0.105  -0.190  0.00  0.00    -0.153 NA
ATOM     11  C   UNL     1       2.148   0.896  -0.410  0.00  0.00    +0.196 A 
ATOM     12  C   UNL     1       2.674   2.270  -0.366  0.00  0.00    +0.286 A 
ATOM     13  O   UNL     1       1.939   3.219  -0.566  0.00  0.00    -0.265 OA
BRANCH   9  14
ATOM     14  C   UNL     1       5.189  -0.919   0.316  0.00  0.00    +0.071 A 
ATOM     15  C   UNL     1       6.163  -0.821   1.302  0.00  0.00    +0.028 A 
ATOM     16  C   UNL     1       7.017  -1.881   1.534  0.00  0.00    +0.005 A 
ATOM     17  C   UNL     1       6.912  -3.035   0.779  0.00  0.00    -0.050 A 
ATOM     18  C   UNL     1       7.850  -4.187   1.032  0.00  0.00    +0.044 C 
ATOM     19  C   UNL     1       5.947  -3.134  -0.207  0.00  0.00    +0.005 A 
ATOM     20  C   UNL     1       5.086  -2.080  -0.441  0.00  0.00    +0.028 A 
ENDBRANCH   9  14
BRANCH   6  22
ATOM     21  C   UNL     1       4.419   4.364   1.375  0.00  0.00    +0.027 C 
ATOM     22  C   UNL     1       4.527   3.822  -0.052  0.00  0.00    +0.127 C 
ENDBRANCH   6  22
ENDBRANCH   1  11
BRANCH   3  23
ATOM     23  C   UNL     1      -2.230  -1.306  -1.225  0.00  0.00    +0.305 C 
ATOM     24  N   UNL     1      -3.507  -0.899  -1.370  0.00  0.00    -0.290 N 
ATOM     25  C   UNL     1      -4.582  -1.852  -1.693  0.00  0.00    +0.113 C 
ATOM     26  C   UNL     1      -5.582  -1.841  -0.527  0.00  0.00    +0.054 C 
ATOM     27  C   UNL     1      -5.893  -0.431  -0.120  0.00  0.00    -0.041 C 
ATOM     28  C   UNL     1      -5.147   0.606  -0.413  0.00  0.00    -0.004 C 
ATOM     29  C   UNL     1      -3.881   0.514  -1.219  0.00  0.00    +0.135 C 
ATOM     30  O   UNL     1      -1.965  -2.491  -1.240  0.00  0.00    -0.265 OA
BRANCH  27  31
ATOM     31  C   UNL     1      -7.123  -0.196   0.665  0.00  0.00    -0.022 A 
ATOM     32  C   UNL     1      -7.249  -0.731   1.948  0.00  0.00    +0.008 A 
ATOM     33  C   UNL     1      -8.397  -0.502   2.678  0.00  0.00    +0.001 A 
ATOM     34  C   UNL     1      -9.427   0.246   2.136  0.00  0.00    +0.000 A 
ATOM     35  C   UNL     1      -9.311   0.774   0.863  0.00  0.00    +0.001 A 
ATOM     36  C   UNL     1      -8.165   0.558   0.125  0.00  0.00    +0.008 A 
ENDBRANCH  27  31
ENDBRANCH   3  23
TORSDOF 5
