REMARK  Name = m199
REMARK  9 active torsions:
REMARK  status: ('A' for Active; 'I' for Inactive)
REMARK    1  A    between atoms: C_1  and  C_2
REMARK    2  A    between atoms: C_2  and  S_3
REMARK    3  A    between atoms: S_3  and  C_4
REMARK    4  A    between atoms: C_7  and  C_8
REMARK    5  A    between atoms: N_10  and  C_11
REMARK    6  A    between atoms: N_15  and  S_16
REMARK    7  A    between atoms: S_16  and  C_19
REMARK    8  A    between atoms: C_23  and  C_24
REMARK    9  A    between atoms: N_28  and  C_29
REMARK                            x       y       z     vdW  Elec       q    Type
REMARK                         _______ _______ _______ _____ _____    ______ ____
ROOT
ATOM      1  C   UNL     1       1.028  -1.554  -0.156  0.00  0.00    +0.134 A 
ATOM      2  C   UNL     1      -0.230  -1.432   0.453  0.00  0.00    +0.020 A 
ATOM      3  C   UNL     1      -0.675  -0.409   1.471  0.00  0.00    +0.148 C 
ATOM      4  N   UNL     1      -2.140  -0.519   1.590  0.00  0.00    -0.172 NA
ATOM      5  C   UNL     1      -2.735  -1.861   1.672  0.00  0.00    +0.116 C 
ATOM      6  C   UNL     1      -2.471  -2.613   0.363  0.00  0.00    +0.072 C 
ATOM      7  C   UNL     1      -1.030  -2.412  -0.033  0.00  0.00    +0.045 A 
ATOM      8  N   UNL     1      -0.308  -3.140  -0.906  0.00  0.00    -0.270 N 
ATOM      9  C   UNL     1      -0.786  -4.305  -1.655  0.00  0.00    +0.172 C 
ATOM     10  N   UNL     1       0.980  -2.590  -0.974  0.00  0.00    -0.168 NA
ENDROOT
BRANCH   1  14
ATOM     11  C   UNL     1       4.191   0.213   0.014  0.00  0.00    +0.192 A 
ATOM     12  N   UNL     1       3.437  -0.798  -0.510  0.00  0.00    -0.304 N 
ATOM     13  C   UNL     1       3.859  -1.800  -1.492  0.00  0.00    +0.153 C 
ATOM     14  C   UNL     1       2.200  -0.684   0.082  0.00  0.00    +0.185 A 
ATOM     15  N   UNL     1       2.256   0.346   0.893  0.00  0.00    -0.127 NA
ATOM     16  N   UNL     1       3.427   0.874   0.854  0.00  0.00    -0.122 NA
BRANCH  11  17
ATOM     17  S   UNL     1       5.874   0.568  -0.369  0.00  0.00    -0.086 S 
BRANCH  17  19
ATOM     18  C   UNL     1       7.576   2.510   0.523  0.00  0.00    +0.016 C 
ATOM     19  C   UNL     1       6.140   2.011   0.692  0.00  0.00    +0.074 C 
ENDBRANCH  17  19
ENDBRANCH  11  17
ENDBRANCH   1  14
BRANCH   4  20
ATOM     20  S   UNL     1      -3.092   0.836   1.630  0.00  0.00    +0.061 S 
ATOM     21  O   UNL     1      -2.244   1.891   2.062  0.00  0.00    -0.153 OA
ATOM     22  O   UNL     1      -4.301   0.440   2.263  0.00  0.00    -0.153 OA
BRANCH  20  23
ATOM     23  C   UNL     1      -3.527   1.222  -0.033  0.00  0.00    +0.106 A 
ATOM     24  C   UNL     1      -2.726   2.067  -0.779  0.00  0.00    +0.032 A 
ATOM     25  C   UNL     1      -3.065   2.367  -2.085  0.00  0.00    -0.049 A 
ATOM     26  C   UNL     1      -2.189   3.282  -2.900  0.00  0.00    +0.044 C 
ATOM     27  C   UNL     1      -4.211   1.830  -2.643  0.00  0.00    +0.003 A 
ATOM     28  C   UNL     1      -5.015   0.990  -1.895  0.00  0.00    +0.002 A 
ATOM     29  C   UNL     1      -4.673   0.686  -0.590  0.00  0.00    +0.028 A 
ENDBRANCH  20  23
ENDBRANCH   4  20
TORSDOF 5
