REMARK  Name = m200
REMARK  11 active torsions:
REMARK  status: ('A' for Active; 'I' for Inactive)
REMARK    1  A    between atoms: C_1  and  O_2
REMARK    2  A    between atoms: O_2  and  C_3
REMARK    3  A    between atoms: C_6  and  C_7
REMARK    4  A    between atoms: C_10  and  N_11
REMARK    5  A    between atoms: N_14  and  C_15
REMARK    6  A    between atoms: C_15  and  C_16
REMARK    7  A    between atoms: C_16  and  O_17
REMARK    8  A    between atoms: C_21  and  C_22
REMARK    9  A    between atoms: C_25  and  C_26
REMARK   10  A    between atoms: C_28  and  O_29
REMARK   11  A    between atoms: O_29  and  C_30
REMARK                            x       y       z     vdW  Elec       q    Type
REMARK                         _______ _______ _______ _____ _____    ______ ____
ROOT
ATOM      1  C   UNL     1       1.347   1.106   0.061  0.00  0.00    +0.098 A 
ATOM      2  C   UNL     1       1.238   2.481  -0.173  0.00  0.00    +0.021 A 
ATOM      3  C   UNL     1       2.378   3.436  -0.414  0.00  0.00    +0.050 C 
ATOM      4  C   UNL     1      -0.109   2.805  -0.142  0.00  0.00    +0.161 A 
ATOM      5  N   UNL     1      -0.797   1.646   0.114  0.00  0.00    -0.200 N 
ATOM      6  C   UNL     1      -2.163   1.674   0.205  0.00  0.00    +0.127 A 
ATOM      7  C   UNL     1      -2.815   2.865   0.037  0.00  0.00    +0.066 A 
ATOM      8  C   UNL     1      -2.075   4.019  -0.222  0.00  0.00    +0.044 A 
ATOM      9  C   UNL     1      -2.783   5.337  -0.409  0.00  0.00    +0.066 C 
ATOM     10  N   UNL     1      -0.764   3.964  -0.304  0.00  0.00    -0.233 NA
ATOM     11  N   UNL     1       0.136   0.610   0.235  0.00  0.00    -0.163 NA
ENDROOT
BRANCH   1  15
ATOM     12  C   UNL     1       4.984  -1.101   0.207  0.00  0.00    +0.162 A 
ATOM     13  C   UNL     1       3.876  -1.633  -0.447  0.00  0.00    +0.162 A 
ATOM     14  C   UNL     1       2.691  -0.920  -0.490  0.00  0.00    +0.059 A 
ATOM     15  C   UNL     1       2.614   0.335   0.111  0.00  0.00    +0.006 A 
ATOM     16  C   UNL     1       3.729   0.865   0.758  0.00  0.00    +0.014 A 
ATOM     17  C   UNL     1       4.907   0.147   0.804  0.00  0.00    +0.050 A 
BRANCH  12  19
ATOM     18  C   UNL     1       7.085  -1.006   0.977  0.00  0.00    +0.277 C 
ATOM     19  O   UNL     1       6.146  -1.806   0.255  0.00  0.00    -0.491 OA
ENDBRANCH  12  19
BRANCH  13  20
ATOM     20  O   UNL     1       3.954  -2.858  -1.032  0.00  0.00    -0.491 OA
ATOM     21  C   UNL     1       2.671  -3.127  -1.600  0.00  0.00    +0.277 C 
ENDBRANCH  13  20
ENDBRANCH   1  15
BRANCH   6  22
ATOM     22  N   UNL     1      -2.871   0.519   0.463  0.00  0.00    -0.313 N 
ATOM     23  C   UNL     1      -2.180  -0.739   0.788  0.00  0.00    +0.122 C 
ATOM     24  C   UNL     1      -2.757  -1.852  -0.084  0.00  0.00    +0.103 C 
ATOM     25  N   UNL     1      -4.211  -1.924   0.105  0.00  0.00    -0.297 NA
ATOM     26  C   UNL     1      -4.785  -0.688  -0.439  0.00  0.00    +0.103 C 
ATOM     27  C   UNL     1      -4.342   0.504   0.415  0.00  0.00    +0.122 C 
BRANCH  25  28
ATOM     28  C   UNL     1      -4.693  -3.023  -0.743  0.00  0.00    +0.112 C 
BRANCH  28  29
ATOM     29  C   UNL     1      -4.339  -4.362  -0.093  0.00  0.00    +0.171 C 
BRANCH  29  30
ATOM     30  O   UNL     1      -5.050  -4.495   1.140  0.00  0.00    -0.394 OA
ATOM     31  H   UNL     1      -4.799  -5.350   1.516  0.00  0.00    +0.209 HD
ENDBRANCH  29  30
ENDBRANCH  28  29
ENDBRANCH  25  28
ENDBRANCH   6  22
TORSDOF 7
