REMARK  Name = m201
REMARK  4 active torsions:
REMARK  status: ('A' for Active; 'I' for Inactive)
REMARK    1  A    between atoms: C_1  and  O_2
REMARK    2  A    between atoms: O_2  and  C_3
REMARK    3  A    between atoms: C_7  and  C_8
REMARK    4  A    between atoms: C_12  and  C_13
REMARK                            x       y       z     vdW  Elec       q    Type
REMARK                         _______ _______ _______ _____ _____    ______ ____
ROOT
ATOM      1  C   UNL     1       1.301   0.157  -0.216  0.00  0.00    +0.103 A 
ATOM      2  C   UNL     1       0.151  -0.607  -0.099  0.00  0.00    +0.134 A 
ATOM      3  N   UNL     1       0.562  -1.944  -0.053  0.00  0.00    -0.303 N 
ATOM      4  C   UNL     1      -0.099  -3.252   0.021  0.00  0.00    +0.148 C 
ATOM      5  C   UNL     1       0.858  -4.352   0.539  0.00  0.00    +0.197 C 
ATOM      6  S   UNL     1       2.458  -3.600   0.019  0.00  0.00    +0.032 S 
ATOM      7  O   UNL     1       3.406  -3.566   1.077  0.00  0.00    -0.166 OA
ATOM      8  O   UNL     1       2.805  -3.942  -1.316  0.00  0.00    -0.166 OA
ATOM      9  C   UNL     1       1.908  -1.909  -0.108  0.00  0.00    +0.252 A 
ATOM     10  N   UNL     1       2.341  -0.687  -0.220  0.00  0.00    -0.211 NA
ENDROOT
BRANCH   2  11
ATOM     11  C   UNL     1      -1.225  -0.113  -0.041  0.00  0.00    +0.268 C 
ATOM     12  N   UNL     1      -2.250  -0.982   0.066  0.00  0.00    -0.260 N 
ATOM     13  H   UNL     1      -2.075  -1.935   0.106  0.00  0.00    +0.157 HD
ATOM     14  C   UNL     1      -3.548  -0.516   0.120  0.00  0.00    +0.156 C 
ATOM     15  S   UNL     1      -4.080   1.184   0.071  0.00  0.00    -0.089 S 
ATOM     16  C   UNL     1      -5.892   0.921   0.187  0.00  0.00    +0.100 C 
ATOM     17  C   UNL     1      -5.939  -0.621   0.271  0.00  0.00    +0.155 C 
ATOM     18  N   UNL     1      -4.627  -1.224   0.223  0.00  0.00    -0.262 NA
ATOM     19  O   UNL     1      -1.445   1.084  -0.091  0.00  0.00    -0.268 OA
ENDBRANCH   2  11
BRANCH   1  22
ATOM     20  C   UNL     1       2.424   3.715   0.264  0.00  0.00    +0.121 A 
ATOM     21  C   UNL     1       2.370   2.334   0.355  0.00  0.00    +0.055 A 
ATOM     22  C   UNL     1       1.367   1.634  -0.314  0.00  0.00    +0.006 A 
ATOM     23  C   UNL     1       0.430   2.328  -1.079  0.00  0.00    +0.010 A 
ATOM     24  C   UNL     1       0.495   3.704  -1.169  0.00  0.00    +0.004 A 
ATOM     25  C   UNL     1       1.487   4.397  -0.501  0.00  0.00    +0.045 A 
BRANCH  20  27
ATOM     26  C   UNL     1       3.192   5.786   0.627  0.00  0.00    +0.277 C 
ATOM     27  O   UNL     1       3.397   4.402   0.918  0.00  0.00    -0.495 OA
ENDBRANCH  20  27
ENDBRANCH   1  22
TORSDOF 3
