REMARK  Name = m202
REMARK  6 active torsions:
REMARK  status: ('A' for Active; 'I' for Inactive)
REMARK    1  A    between atoms: C_1  and  O_2
REMARK    2  A    between atoms: O_2  and  C_3
REMARK    3  A    between atoms: C_6  and  C_7
REMARK    4  A    between atoms: C_11  and  C_12
REMARK    5  A    between atoms: N_14  and  C_15
REMARK    6  A    between atoms: C_15  and  C_16
REMARK                            x       y       z     vdW  Elec       q    Type
REMARK                         _______ _______ _______ _____ _____    ______ ____
ROOT
ATOM      1  C   UNL     1       1.425  -0.859  -0.002  0.00  0.00    +0.103 A 
ATOM      2  C   UNL     1       0.096  -0.488   0.118  0.00  0.00    +0.133 A 
ATOM      3  N   UNL     1      -0.657  -1.665   0.037  0.00  0.00    -0.303 N 
ATOM      4  C   UNL     1      -2.083  -2.012   0.045  0.00  0.00    +0.148 C 
ATOM      5  C   UNL     1      -2.313  -3.495   0.424  0.00  0.00    +0.197 C 
ATOM      6  S   UNL     1      -0.692  -4.178  -0.122  0.00  0.00    +0.032 S 
ATOM      7  O   UNL     1      -0.077  -4.974   0.883  0.00  0.00    -0.166 OA
ATOM      8  O   UNL     1      -0.694  -4.540  -1.496  0.00  0.00    -0.166 OA
ATOM      9  C   UNL     1       0.243  -2.661  -0.087  0.00  0.00    +0.252 A 
ATOM     10  N   UNL     1       1.457  -2.193  -0.127  0.00  0.00    -0.211 NA
ENDROOT
BRANCH   1  14
ATOM     11  C   UNL     1       4.783   1.749   0.037  0.00  0.00    +0.120 A 
ATOM     12  C   UNL     1       3.624   2.121  -0.633  0.00  0.00    +0.046 A 
ATOM     13  C   UNL     1       2.536   1.275  -0.652  0.00  0.00    +0.013 A 
ATOM     14  C   UNL     1       2.595   0.049   0.011  0.00  0.00    +0.003 A 
ATOM     15  C   UNL     1       3.758  -0.319   0.688  0.00  0.00    +0.013 A 
ATOM     16  C   UNL     1       4.845   0.529   0.699  0.00  0.00    +0.046 A 
BRANCH  11  18
ATOM     17  C   UNL     1       5.489   3.738  -0.706  0.00  0.00    +0.277 C 
ATOM     18  O   UNL     1       5.855   2.582   0.050  0.00  0.00    -0.495 OA
ENDBRANCH  11  18
ENDBRANCH   1  14
BRANCH   2  19
ATOM     19  C   UNL     1      -0.420   0.871   0.289  0.00  0.00    +0.263 C 
ATOM     20  N   UNL     1      -1.748   1.080   0.384  0.00  0.00    -0.308 N 
ATOM     21  H   UNL     1      -2.362   0.330   0.339  0.00  0.00    +0.149 HD
ATOM     22  O   UNL     1       0.349   1.813   0.345  0.00  0.00    -0.269 OA
BRANCH  20  23
ATOM     23  C   UNL     1      -2.266   2.440   0.554  0.00  0.00    +0.136 C 
BRANCH  23  24
ATOM     24  C   UNL     1      -3.793   2.399   0.634  0.00  0.00    +0.135 C 
ATOM     25  O   UNL     1      -4.333   1.882  -0.594  0.00  0.00    -0.375 OA
ATOM     26  C   UNL     1      -5.584   2.564  -0.824  0.00  0.00    +0.160 C 
ATOM     27  C   UNL     1      -5.283   4.025  -0.403  0.00  0.00    +0.031 C 
ATOM     28  C   UNL     1      -4.347   3.825   0.814  0.00  0.00    +0.035 C 
ENDBRANCH  23  24
ENDBRANCH  20  23
ENDBRANCH   2  19
TORSDOF 5
