REMARK  Name = m203
REMARK  4 active torsions:
REMARK  status: ('A' for Active; 'I' for Inactive)
REMARK    1  A    between atoms: C_6  and  C_7
REMARK    2  A    between atoms: C_12  and  C_13
REMARK    3  A    between atoms: C_13  and  N_14
REMARK    4  A    between atoms: N_14  and  C_15
REMARK                            x       y       z     vdW  Elec       q    Type
REMARK                         _______ _______ _______ _____ _____    ______ ____
ROOT
ATOM      1  C   UNL     1       2.160   2.119   0.028  0.00  0.00    +0.132 A 
ATOM      2  C   UNL     1       0.836   2.528  -0.235  0.00  0.00    +0.014 A 
ATOM      3  C   UNL     1       0.777   3.867  -0.072  0.00  0.00    +0.110 A 
ATOM      4  N   UNL     1       2.009   4.301   0.270  0.00  0.00    -0.284 N 
ATOM      5  H   UNL     1       2.260   5.222   0.446  0.00  0.00    +0.188 HD
ATOM      6  N   UNL     1       2.863   3.192   0.328  0.00  0.00    -0.170 NA
ENDROOT
BRANCH   1  12
ATOM      7  C   UNL     1       4.683  -3.364  -0.380  0.00  0.00    +0.001 A 
ATOM      8  C   UNL     1       4.950  -2.041  -0.598  0.00  0.00    +0.011 A 
ATOM      9  C   UNL     1       3.969  -1.084  -0.332  0.00  0.00    +0.021 A 
ATOM     10  C   UNL     1       2.712  -1.480   0.158  0.00  0.00    +0.136 A 
ATOM     11  O   UNL     1       1.971  -0.365   0.322  0.00  0.00    -0.453 OA
ATOM     12  C   UNL     1       2.670   0.732  -0.030  0.00  0.00    +0.156 A 
ATOM     13  C   UNL     1       2.462  -2.830   0.371  0.00  0.00    +0.047 A 
ATOM     14  C   UNL     1       3.909   0.375  -0.444  0.00  0.00    +0.060 A 
ATOM     15  C   UNL     1       3.444  -3.760   0.103  0.00  0.00    +0.004 A 
ENDBRANCH   1  12
BRANCH   2  16
ATOM     16  C   UNL     1      -0.312   1.629  -0.619  0.00  0.00    +0.120 C 
BRANCH  16  17
ATOM     17  N   UNL     1      -0.842   0.972   0.583  0.00  0.00    -0.307 NA
ATOM     18  H   UNL     1      -0.117   0.357   0.921  0.00  0.00    +0.123 HD
BRANCH  17  19
ATOM     19  C   UNL     1      -1.951   0.116   0.142  0.00  0.00    +0.076 C 
ATOM     20  C   UNL     1      -3.237   0.947   0.060  0.00  0.00    +0.164 C 
ATOM     21  N   UNL     1      -4.369   0.043  -0.149  0.00  0.00    -0.248 N 
ATOM     22  C   UNL     1      -4.348  -1.286   0.068  0.00  0.00    +0.128 A 
ATOM     23  N   UNL     1      -5.525  -1.761  -0.226  0.00  0.00    -0.219 NA
ATOM     24  C   UNL     1      -6.322  -0.771  -0.632  0.00  0.00    +0.245 A 
ATOM     25  C   UNL     1      -3.140  -2.041   0.568  0.00  0.00    +0.077 C 
ATOM     26  N   UNL     1      -5.654   0.355  -0.600  0.00  0.00    -0.158 NA
ATOM     27  C   UNL     1      -2.144  -1.026   1.143  0.00  0.00    +0.028 C 
ENDBRANCH  17  19
ENDBRANCH  16  17
ENDBRANCH   2  16
TORSDOF 4
