REMARK  Name = m204
REMARK  9 active torsions:
REMARK  status: ('A' for Active; 'I' for Inactive)
REMARK    1  A    between atoms: C_1  and  C_2
REMARK    2  A    between atoms: C_2  and  C_3
REMARK    3  A    between atoms: C_2  and  C_4
REMARK    4  A    between atoms: C_8  and  C_9
REMARK    5  A    between atoms: C_9  and  C_10
REMARK    6  A    between atoms: C_16  and  C_17
REMARK    7  A    between atoms: C_18  and  C_19
REMARK    8  A    between atoms: N_21  and  C_22
REMARK    9  A    between atoms: N_21  and  C_23
REMARK                            x       y       z     vdW  Elec       q    Type
REMARK                         _______ _______ _______ _____ _____    ______ ____
ROOT
ATOM      1  C   UNL     1       2.046  -0.806  -0.036  0.00  0.00    +0.223 C 
ATOM      2  N   UNL     1       0.794  -1.128  -0.417  0.00  0.00    -0.296 N 
ATOM      3  C   UNL     1      -0.382  -0.498   0.208  0.00  0.00    +0.144 C 
ATOM      4  C   UNL     1      -1.333  -0.054  -0.914  0.00  0.00    +0.167 C 
ATOM      5  O   UNL     1      -1.659  -1.176  -1.733  0.00  0.00    -0.369 OA
ATOM      6  C   UNL     1      -0.481  -1.550  -2.447  0.00  0.00    +0.179 C 
ATOM      7  C   UNL     1       0.549  -2.128  -1.470  0.00  0.00    +0.136 C 
ATOM      8  O   UNL     1       2.221   0.021   0.834  0.00  0.00    -0.275 OA
ENDROOT
BRANCH   4   9
ATOM      9  C   UNL     1      -2.593   0.509  -0.308  0.00  0.00    +0.011 A 
ATOM     10  C   UNL     1      -2.809   1.898  -0.297  0.00  0.00    +0.014 A 
ATOM     11  C   UNL     1      -4.026   2.322   0.292  0.00  0.00    +0.109 A 
ATOM     12  N   UNL     1      -4.370   3.587   0.373  0.00  0.00    -0.248 NA
ATOM     13  C   UNL     1      -3.591   4.540  -0.101  0.00  0.00    +0.112 A 
ATOM     14  C   UNL     1      -2.380   4.224  -0.701  0.00  0.00    +0.020 A 
ATOM     15  S   UNL     1      -4.785   0.798   0.799  0.00  0.00    -0.064 S 
ATOM     16  C   UNL     1      -1.976   2.926  -0.811  0.00  0.00    +0.012 A 
ATOM     17  C   UNL     1      -3.520  -0.325   0.233  0.00  0.00    +0.082 A 
BRANCH  17  18
ATOM     18  C   UNL     1      -3.487  -1.792   0.328  0.00  0.00    +0.253 C 
ATOM     19  N   UNL     1      -4.571  -2.463   0.765  0.00  0.00    -0.303 N 
ATOM     20  C   UNL     1      -5.819  -1.744   1.032  0.00  0.00    +0.132 C 
ATOM     21  C   UNL     1      -4.501  -3.911   0.973  0.00  0.00    +0.132 C 
ATOM     22  O   UNL     1      -2.482  -2.399   0.012  0.00  0.00    -0.269 OA
ENDBRANCH  17  18
ENDBRANCH   4   9
BRANCH   1  23
ATOM     23  C   UNL     1       3.228  -1.473  -0.690  0.00  0.00    +0.171 C 
BRANCH  23  26
ATOM     24  C   UNL     1       6.284   0.244   0.220  0.00  0.00    +0.154 A 
ATOM     25  N   UNL     1       5.225   0.042  -0.563  0.00  0.00    -0.215 NA
ATOM     26  C   UNL     1       4.503  -0.941  -0.088  0.00  0.00    +0.134 A 
ATOM     27  N   UNL     1       5.093  -1.388   1.034  0.00  0.00    -0.262 N 
ATOM     28  H   UNL     1       4.784  -2.108   1.606  0.00  0.00    +0.190 HD
ATOM     29  N   UNL     1       6.245  -0.605   1.214  0.00  0.00    -0.157 NA
BRANCH  24  31
ATOM     30  C   UNL     1       7.387   2.238   1.198  0.00  0.00    +0.015 C 
ATOM     31  C   UNL     1       7.349   1.286   0.001  0.00  0.00    +0.053 C 
ATOM     32  C   UNL     1       8.709   0.602  -0.150  0.00  0.00    +0.015 C 
ENDBRANCH  24  31
ENDBRANCH  23  26
ENDBRANCH   1  23
TORSDOF 5
