REMARK  Name = m205
REMARK  8 active torsions:
REMARK  status: ('A' for Active; 'I' for Inactive)
REMARK    1  A    between atoms: C_1  and  C_2
REMARK    2  A    between atoms: C_2  and  N_3
REMARK    3  A    between atoms: C_11  and  C_12
REMARK    4  A    between atoms: N_17  and  C_18
REMARK    5  A    between atoms: N_26  and  C_27
REMARK    6  A    between atoms: C_31  and  C_32
REMARK    7  A    between atoms: C_32  and  C_33
REMARK    8  A    between atoms: C_32  and  C_34
REMARK                            x       y       z     vdW  Elec       q    Type
REMARK                         _______ _______ _______ _____ _____    ______ ____
ROOT
ATOM      1  N   UNL     1      -4.555  -0.836  -1.420  0.00  0.00    -0.278 N 
ATOM      2  C   UNL     1      -3.760  -0.017  -0.638  0.00  0.00    +0.151 A 
ATOM      3  C   UNL     1      -2.821  -0.617   0.219  0.00  0.00    +0.094 A 
ATOM      4  C   UNL     1      -2.006   0.194   1.026  0.00  0.00    +0.054 A 
ATOM      5  C   UNL     1      -2.178   1.576   0.939  0.00  0.00    +0.037 A 
ATOM      6  C   UNL     1      -3.132   2.086   0.072  0.00  0.00    +0.047 A 
ATOM      7  C   UNL     1      -2.719  -2.086   0.235  0.00  0.00    +0.264 A 
ATOM      8  O   UNL     1      -1.918  -2.649   0.956  0.00  0.00    -0.267 OA
ATOM      9  N   UNL     1      -3.541  -2.791  -0.573  0.00  0.00    -0.274 N 
ATOM     10  H   UNL     1      -3.490  -3.760  -0.577  0.00  0.00    +0.173 HD
ATOM     11  N   UNL     1      -3.881   1.300  -0.673  0.00  0.00    -0.233 NA
ATOM     12  C   UNL     1      -4.426  -2.172  -1.371  0.00  0.00    +0.331 A 
ATOM     13  O   UNL     1      -5.143  -2.852  -2.080  0.00  0.00    -0.246 OA
ENDROOT
BRANCH   4  14
ATOM     14  C   UNL     1      -0.999  -0.398   1.938  0.00  0.00    +0.248 C 
ATOM     15  N   UNL     1       0.288  -0.005   1.867  0.00  0.00    -0.295 N 
ATOM     16  C   UNL     1       0.745   0.910   0.809  0.00  0.00    +0.127 C 
ATOM     17  C   UNL     1       2.005   0.327   0.170  0.00  0.00    +0.125 C 
ATOM     18  N   UNL     1       3.017   0.085   1.205  0.00  0.00    -0.312 N 
ATOM     19  C   UNL     1       2.510  -0.983   2.074  0.00  0.00    +0.125 C 
ATOM     20  C   UNL     1       1.283  -0.481   2.842  0.00  0.00    +0.127 C 
ATOM     21  O   UNL     1      -1.334  -1.238   2.750  0.00  0.00    -0.270 OA
BRANCH  18  22
ATOM     22  C   UNL     1       4.129  -0.421   0.562  0.00  0.00    +0.135 A 
ATOM     23  C   UNL     1       4.851   0.365  -0.357  0.00  0.00    +0.078 A 
ATOM     24  C   UNL     1       4.729   1.684  -0.846  0.00  0.00    +0.148 A 
ATOM     25  N   UNL     1       5.696   1.902  -1.691  0.00  0.00    -0.177 NA
ATOM     26  N   UNL     1       6.492   0.754  -1.804  0.00  0.00    -0.249 N 
ATOM     27  C   UNL     1       7.674   0.610  -2.656  0.00  0.00    +0.174 C 
ATOM     28  C   UNL     1       5.980  -0.203  -0.979  0.00  0.00    +0.163 A 
ATOM     29  N   UNL     1       6.313  -1.458  -0.682  0.00  0.00    -0.216 NA
ATOM     30  C   UNL     1       5.605  -2.154   0.179  0.00  0.00    +0.225 A 
ATOM     31  N   UNL     1       4.542  -1.663   0.791  0.00  0.00    -0.220 NA
ENDBRANCH  18  22
ENDBRANCH   4  14
BRANCH   6  32
ATOM     32  C   UNL     1      -3.316   3.579  -0.021  0.00  0.00    +0.032 C 
ATOM     33  C   UNL     1      -1.962   4.271   0.150  0.00  0.00    +0.014 C 
ATOM     34  C   UNL     1      -4.270   4.045   1.081  0.00  0.00    +0.014 C 
ENDBRANCH   6  32
BRANCH   1  36
ATOM     35  C   UNL     1      -6.877  -0.086  -1.580  0.00  0.00    +0.027 C 
ATOM     36  C   UNL     1      -5.546  -0.238  -2.318  0.00  0.00    +0.125 C 
ENDBRANCH   1  36
TORSDOF 4
