REMARK  Name = m206
REMARK  9 active torsions:
REMARK  status: ('A' for Active; 'I' for Inactive)
REMARK    1  A    between atoms: C_1  and  C_2
REMARK    2  A    between atoms: C_2  and  C_3
REMARK    3  A    between atoms: C_3  and  O_4
REMARK    4  A    between atoms: O_4  and  C_5
REMARK    5  A    between atoms: C_8  and  C_9
REMARK    6  A    between atoms: C_16  and  C_17
REMARK    7  A    between atoms: C_26  and  C_27
REMARK    8  A    between atoms: C_31  and  O_32
REMARK    9  A    between atoms: O_32  and  C_33
REMARK                            x       y       z     vdW  Elec       q    Type
REMARK                         _______ _______ _______ _____ _____    ______ ____
ROOT
ATOM      1  C   UNL     1       0.924  -1.615  -0.196  0.00  0.00    +0.063 C 
ATOM      2  C   UNL     1      -0.063  -0.560  -0.626  0.00  0.00    +0.023 A 
ATOM      3  C   UNL     1       0.123   0.546  -1.443  0.00  0.00    +0.066 A 
ATOM      4  N   UNL     1      -1.022   1.178  -1.547  0.00  0.00    -0.168 NA
ATOM      5  N   UNL     1      -1.984   0.487  -0.792  0.00  0.00    -0.198 N 
ATOM      6  C   UNL     1      -3.330   0.837  -0.650  0.00  0.00    +0.176 A 
ATOM      7  N   UNL     1      -4.118   0.091   0.086  0.00  0.00    -0.144 NA
ATOM      8  N   UNL     1      -5.465   0.425   0.245  0.00  0.00    -0.195 N 
ATOM      9  C   UNL     1      -5.977   1.536  -0.380  0.00  0.00    +0.178 A 
ATOM     10  N   UNL     1      -7.259   1.601  -0.059  0.00  0.00    -0.128 NA
ATOM     11  N   UNL     1      -7.553   0.612   0.712  0.00  0.00    -0.132 NA
ATOM     12  C   UNL     1      -5.130   2.332  -1.175  0.00  0.00    +0.054 A 
ATOM     13  C   UNL     1      -6.493  -0.128   0.924  0.00  0.00    +0.152 A 
ATOM     14  C   UNL     1      -6.432  -1.373   1.770  0.00  0.00    +0.090 C 
ATOM     15  C   UNL     1      -3.823   1.981  -1.305  0.00  0.00    +0.054 A 
ATOM     16  C   UNL     1       1.418   0.951  -2.099  0.00  0.00    +0.068 C 
ATOM     17  C   UNL     1      -1.373  -0.576  -0.227  0.00  0.00    +0.134 A 
ATOM     18  N   UNL     1      -1.875  -1.565   0.618  0.00  0.00    -0.270 N 
ATOM     19  H   UNL     1      -2.828  -1.650   0.775  0.00  0.00    +0.156 HD
ATOM     20  C   UNL     1      -0.995  -2.400   1.210  0.00  0.00    +0.219 C 
ATOM     21  O   UNL     1      -1.414  -3.377   1.794  0.00  0.00    -0.275 OA
ATOM     22  C   UNL     1       0.487  -2.156   1.169  0.00  0.00    +0.109 C 
ENDROOT
BRANCH   1  26
ATOM     23  C   UNL     1       4.825   0.109   0.122  0.00  0.00    +0.162 A 
ATOM     24  C   UNL     1       4.602  -0.953  -0.750  0.00  0.00    +0.162 A 
ATOM     25  C   UNL     1       3.338  -1.513  -0.846  0.00  0.00    +0.053 A 
ATOM     26  C   UNL     1       2.300  -1.010  -0.085  0.00  0.00    -0.036 A 
ATOM     27  C   UNL     1       2.520   0.049   0.777  0.00  0.00    +0.008 A 
ATOM     28  C   UNL     1       3.780   0.608   0.882  0.00  0.00    +0.050 A 
BRANCH  24  29
ATOM     29  O   UNL     1       5.625  -1.446  -1.498  0.00  0.00    -0.491 OA
ATOM     30  C   UNL     1       5.089  -2.523  -2.271  0.00  0.00    +0.277 C 
ENDBRANCH  24  29
BRANCH  23  31
ATOM     31  O   UNL     1       6.065   0.658   0.224  0.00  0.00    -0.488 OA
BRANCH  31  32
ATOM     32  C   UNL     1       5.971   1.715   1.181  0.00  0.00    +0.229 C 
BRANCH  32  34
ATOM     33  C   UNL     1       7.239   3.510   2.369  0.00  0.00    +0.007 C 
ATOM     34  C   UNL     1       7.340   2.378   1.344  0.00  0.00    +0.038 C 
ENDBRANCH  32  34
ENDBRANCH  31  32
ENDBRANCH  23  31
ENDBRANCH   1  26
TORSDOF 5
