REMARK  Name = m207
REMARK  7 active torsions:
REMARK  status: ('A' for Active; 'I' for Inactive)
REMARK    1  A    between atoms: C_1  and  C_2
REMARK    2  A    between atoms: C_7  and  C_8
REMARK    3  A    between atoms: C_8  and  O_9
REMARK    4  A    between atoms: O_9  and  C_10
REMARK    5  A    between atoms: C_15  and  C_16
REMARK    6  A    between atoms: C_23  and  C_24
REMARK    7  A    between atoms: C_33  and  C_34
REMARK                            x       y       z     vdW  Elec       q    Type
REMARK                         _______ _______ _______ _____ _____    ______ ____
ROOT
ATOM      1  C   UNL     1       0.815   0.456   0.901  0.00  0.00    +0.066 C 
ATOM      2  C   UNL     1      -0.331   0.646  -0.060  0.00  0.00    +0.023 A 
ATOM      3  C   UNL     1      -0.349   1.254  -1.307  0.00  0.00    +0.066 A 
ATOM      4  N   UNL     1      -1.569   1.176  -1.785  0.00  0.00    -0.168 NA
ATOM      5  N   UNL     1      -2.374   0.509  -0.848  0.00  0.00    -0.198 N 
ATOM      6  C   UNL     1      -3.736   0.221  -0.984  0.00  0.00    +0.176 A 
ATOM      7  N   UNL     1      -4.362  -0.417  -0.025  0.00  0.00    -0.144 NA
ATOM      8  N   UNL     1      -5.722  -0.710  -0.139  0.00  0.00    -0.195 N 
ATOM      9  C   UNL     1      -6.414  -0.340  -1.266  0.00  0.00    +0.178 A 
ATOM     10  N   UNL     1      -7.662  -0.746  -1.101  0.00  0.00    -0.128 NA
ATOM     11  N   UNL     1      -7.771  -1.332   0.040  0.00  0.00    -0.132 NA
ATOM     12  C   UNL     1      -5.739   0.340  -2.298  0.00  0.00    +0.054 A 
ATOM     13  C   UNL     1      -6.616  -1.333   0.659  0.00  0.00    +0.152 A 
ATOM     14  C   UNL     1      -6.336  -1.923   2.017  0.00  0.00    +0.090 C 
ATOM     15  C   UNL     1      -4.415   0.614  -2.153  0.00  0.00    +0.054 A 
ATOM     16  C   UNL     1       0.829   1.893  -1.995  0.00  0.00    +0.068 C 
ATOM     17  C   UNL     1      -1.596   0.196   0.210  0.00  0.00    +0.134 A 
ATOM     18  N   UNL     1      -1.908  -0.454   1.403  0.00  0.00    -0.270 N 
ATOM     19  H   UNL     1      -2.764  -0.894   1.522  0.00  0.00    +0.156 HD
ATOM     20  C   UNL     1      -0.985  -0.454   2.387  0.00  0.00    +0.219 C 
ATOM     21  O   UNL     1      -1.155  -1.166   3.354  0.00  0.00    -0.275 OA
ATOM     22  C   UNL     1       0.248   0.403   2.323  0.00  0.00    +0.109 C 
ENDROOT
BRANCH   1  24
ATOM     23  C   UNL     1       3.103   1.377   0.451  0.00  0.00    +0.125 A 
ATOM     24  C   UNL     1       1.776   1.610   0.779  0.00  0.00    +0.002 A 
ATOM     25  C   UNL     1       1.339   2.901   1.008  0.00  0.00    +0.008 A 
ATOM     26  C   UNL     1       2.220   3.961   0.897  0.00  0.00    +0.001 A 
ATOM     27  C   UNL     1       3.542   3.731   0.563  0.00  0.00    +0.004 A 
ATOM     28  C   UNL     1       3.986   2.442   0.340  0.00  0.00    +0.046 A 
BRANCH  23  29
ATOM     29  O   UNL     1       3.538   0.108   0.231  0.00  0.00    -0.487 OA
BRANCH  29  30
ATOM     30  C   UNL     1       4.927   0.197  -0.089  0.00  0.00    +0.264 C 
BRANCH  30  33
ATOM     31  C   UNL     1       7.708  -0.151  -0.792  0.00  0.00    +0.044 C 
ATOM     32  C   UNL     1       6.803  -1.351  -0.683  0.00  0.00    -0.044 A 
ATOM     33  C   UNL     1       5.473  -1.184  -0.344  0.00  0.00    -0.007 A 
ATOM     34  C   UNL     1       4.641  -2.285  -0.249  0.00  0.00    +0.007 A 
ATOM     35  C   UNL     1       5.141  -3.552  -0.484  0.00  0.00    +0.000 A 
ATOM     36  C   UNL     1       6.473  -3.718  -0.818  0.00  0.00    +0.000 A 
ATOM     37  C   UNL     1       7.303  -2.618  -0.917  0.00  0.00    +0.004 A 
ENDBRANCH  30  33
ENDBRANCH  29  30
ENDBRANCH  23  29
ENDBRANCH   1  24
TORSDOF 4
