REMARK  Name = m208
REMARK  9 active torsions:
REMARK  status: ('A' for Active; 'I' for Inactive)
REMARK    1  A    between atoms: C_1  and  C_2
REMARK    2  A    between atoms: C_2  and  O_3
REMARK    3  A    between atoms: O_3  and  C_4
REMARK    4  A    between atoms: C_7  and  C_8
REMARK    5  A    between atoms: C_15  and  C_16
REMARK    6  A    between atoms: C_25  and  C_26
REMARK    7  A    between atoms: C_30  and  O_31
REMARK    8  A    between atoms: O_31  and  C_32
REMARK    9  A    between atoms: C_32  and  C_33
REMARK                            x       y       z     vdW  Elec       q    Type
REMARK                         _______ _______ _______ _____ _____    ______ ____
ROOT
ATOM      1  C   UNL     1       1.064  -1.321  -0.075  0.00  0.00    +0.063 C 
ATOM      2  C   UNL     1       0.024  -0.306  -0.479  0.00  0.00    +0.023 A 
ATOM      3  C   UNL     1       0.171   0.881  -1.181  0.00  0.00    +0.066 A 
ATOM      4  N   UNL     1      -1.013   1.434  -1.309  0.00  0.00    -0.168 NA
ATOM      5  N   UNL     1      -1.961   0.605  -0.686  0.00  0.00    -0.198 N 
ATOM      6  C   UNL     1      -3.337   0.839  -0.609  0.00  0.00    +0.176 A 
ATOM      7  N   UNL     1      -4.108  -0.029   0.002  0.00  0.00    -0.144 NA
ATOM      8  N   UNL     1      -5.484   0.188   0.095  0.00  0.00    -0.195 N 
ATOM      9  C   UNL     1      -6.044   1.310  -0.465  0.00  0.00    +0.178 A 
ATOM     10  N   UNL     1      -7.344   1.249  -0.230  0.00  0.00    -0.128 NA
ATOM     11  N   UNL     1      -7.606   0.174   0.429  0.00  0.00    -0.132 NA
ATOM     12  C   UNL     1      -5.216   2.237  -1.125  0.00  0.00    +0.054 A 
ATOM     13  C   UNL     1      -6.505  -0.501   0.649  0.00  0.00    +0.152 A 
ATOM     14  C   UNL     1      -6.397  -1.812   1.385  0.00  0.00    +0.090 C 
ATOM     15  C   UNL     1      -3.879   1.999  -1.194  0.00  0.00    +0.054 A 
ATOM     16  C   UNL     1       1.468   1.441  -1.706  0.00  0.00    +0.068 C 
ATOM     17  C   UNL     1      -1.303  -0.457  -0.176  0.00  0.00    +0.134 A 
ATOM     18  N   UNL     1      -1.776  -1.555   0.542  0.00  0.00    -0.270 N 
ATOM     19  H   UNL     1      -2.727  -1.725   0.625  0.00  0.00    +0.156 HD
ATOM     20  C   UNL     1      -0.871  -2.373   1.119  0.00  0.00    +0.219 C 
ATOM     21  O   UNL     1      -1.245  -3.429   1.584  0.00  0.00    -0.275 OA
ATOM     22  C   UNL     1       0.587  -2.017   1.204  0.00  0.00    +0.109 C 
ENDROOT
BRANCH   1  26
ATOM     23  C   UNL     1       4.785   0.653   0.665  0.00  0.00    +0.162 A 
ATOM     24  C   UNL     1       4.704  -0.336  -0.310  0.00  0.00    +0.162 A 
ATOM     25  C   UNL     1       3.498  -0.978  -0.543  0.00  0.00    +0.053 A 
ATOM     26  C   UNL     1       2.376  -0.626   0.184  0.00  0.00    -0.036 A 
ATOM     27  C   UNL     1       2.455   0.360   1.149  0.00  0.00    +0.008 A 
ATOM     28  C   UNL     1       3.657   1.000   1.391  0.00  0.00    +0.050 A 
BRANCH  23  29
ATOM     29  O   UNL     1       5.967   1.282   0.901  0.00  0.00    -0.489 OA
BRANCH  29  31
ATOM     30  C   UNL     1       7.026   2.981   2.254  0.00  0.00    +0.048 C 
ATOM     31  C   UNL     1       5.728   2.235   1.938  0.00  0.00    +0.226 C 
ENDBRANCH  29  31
ENDBRANCH  23  29
BRANCH  24  32
ATOM     32  O   UNL     1       5.808  -0.681  -1.025  0.00  0.00    -0.489 OA
BRANCH  32  33
ATOM     33  C   UNL     1       5.411  -1.718  -1.925  0.00  0.00    +0.226 C 
ATOM     34  C   UNL     1       6.614  -2.153  -2.764  0.00  0.00    +0.048 C 
ENDBRANCH  32  33
ENDBRANCH  24  32
ENDBRANCH   1  26
TORSDOF 5
