REMARK  Name = m209
REMARK  6 active torsions:
REMARK  status: ('A' for Active; 'I' for Inactive)
REMARK    1  A    between atoms: C_1  and  O_2
REMARK    2  A    between atoms: O_2  and  C_3
REMARK    3  A    between atoms: C_3  and  C_4
REMARK    4  A    between atoms: C_4  and  N_5
REMARK    5  A    between atoms: C_6  and  C_8
REMARK    6  A    between atoms: C_13  and  C_14
REMARK                            x       y       z     vdW  Elec       q    Type
REMARK                         _______ _______ _______ _____ _____    ______ ____
ROOT
ATOM      1  C   UNL     1       1.320   1.274  -0.233  0.00  0.00    +0.082 A 
ATOM      2  C   UNL     1      -0.097   1.649  -0.250  0.00  0.00    +0.105 A 
ATOM      3  N   UNL     1      -0.148   2.961  -0.207  0.00  0.00    -0.173 NA
ATOM      4  N   UNL     1       1.155   3.467  -0.171  0.00  0.00    -0.283 N 
ATOM      5  H   UNL     1       1.387   4.408  -0.140  0.00  0.00    +0.188 HD
ATOM      6  C   UNL     1       2.034   2.454  -0.187  0.00  0.00    +0.118 A 
ENDROOT
BRANCH   2   7
ATOM      7  C   UNL     1      -1.254   0.723  -0.298  0.00  0.00    +0.007 A 
ATOM      8  C   UNL     1      -2.387   0.978   0.467  0.00  0.00    +0.059 A 
ATOM      9  C   UNL     1      -3.479   0.117   0.423  0.00  0.00    +0.163 A 
ATOM     10  O   UNL     1      -4.540   0.438   1.209  0.00  0.00    -0.485 OA
ATOM     11  C   UNL     1      -5.689  -0.259   0.739  0.00  0.00    +0.270 C 
ATOM     12  C   UNL     1      -5.328  -1.743   0.609  0.00  0.00    +0.270 C 
ATOM     13  O   UNL     1      -4.456  -1.893  -0.506  0.00  0.00    -0.485 OA
ATOM     14  C   UNL     1      -3.433  -1.006  -0.387  0.00  0.00    +0.162 A 
ATOM     15  C   UNL     1      -2.291  -1.264  -1.146  0.00  0.00    +0.050 A 
ATOM     16  C   UNL     1      -1.210  -0.413  -1.106  0.00  0.00    +0.014 A 
ENDBRANCH   2   7
BRANCH   1  19
ATOM     17  N   UNL     1       3.207  -0.278  -0.249  0.00  0.00    -0.309 N 
ATOM     18  H   UNL     1       3.804   0.486  -0.216  0.00  0.00    +0.149 HD
ATOM     19  C   UNL     1       1.872  -0.091  -0.264  0.00  0.00    +0.248 C 
ATOM     20  O   UNL     1       1.124  -1.049  -0.304  0.00  0.00    -0.270 OA
BRANCH  17  21
ATOM     21  C   UNL     1       3.756  -1.636  -0.280  0.00  0.00    +0.132 C 
BRANCH  21  22
ATOM     22  C   UNL     1       5.285  -1.568  -0.254  0.00  0.00    +0.178 C 
BRANCH  22  24
ATOM     23  C   UNL     1       7.144  -0.978   0.955  0.00  0.00    +0.194 C 
ATOM     24  O   UNL     1       5.716  -1.015   0.991  0.00  0.00    -0.381 OA
ENDBRANCH  22  24
ENDBRANCH  21  22
ENDBRANCH  17  21
ENDBRANCH   1  19
TORSDOF 5
