REMARK  Name = m210
REMARK  8 active torsions:
REMARK  status: ('A' for Active; 'I' for Inactive)
REMARK    1  A    between atoms: C_1  and  C_2
REMARK    2  A    between atoms: C_2  and  O_3
REMARK    3  A    between atoms: O_3  and  C_4
REMARK    4  A    between atoms: C_7  and  C_8
REMARK    5  A    between atoms: C_15  and  C_16
REMARK    6  A    between atoms: C_25  and  C_26
REMARK    7  A    between atoms: C_30  and  O_31
REMARK    8  A    between atoms: O_31  and  C_32
REMARK                            x       y       z     vdW  Elec       q    Type
REMARK                         _______ _______ _______ _____ _____    ______ ____
ROOT
ATOM      1  C   UNL     1       1.235  -1.361  -0.475  0.00  0.00    +0.063 C 
ATOM      2  C   UNL     1       0.210  -0.267  -0.640  0.00  0.00    +0.023 A 
ATOM      3  C   UNL     1       0.367   1.029  -1.111  0.00  0.00    +0.066 A 
ATOM      4  N   UNL     1      -0.805   1.620  -1.086  0.00  0.00    -0.168 NA
ATOM      5  N   UNL     1      -1.754   0.709  -0.595  0.00  0.00    -0.198 N 
ATOM      6  C   UNL     1      -3.120   0.953  -0.421  0.00  0.00    +0.176 A 
ATOM      7  N   UNL     1      -3.893   0.001   0.045  0.00  0.00    -0.144 NA
ATOM      8  N   UNL     1      -5.259   0.225   0.230  0.00  0.00    -0.195 N 
ATOM      9  C   UNL     1      -5.806   1.445  -0.086  0.00  0.00    +0.178 A 
ATOM     10  N   UNL     1      -7.099   1.367   0.184  0.00  0.00    -0.128 NA
ATOM     11  N   UNL     1      -7.368   0.192   0.638  0.00  0.00    -0.132 NA
ATOM     12  C   UNL     1      -4.975   2.463  -0.591  0.00  0.00    +0.054 A 
ATOM     13  C   UNL     1      -6.279  -0.535   0.683  0.00  0.00    +0.152 A 
ATOM     14  C   UNL     1      -6.183  -1.963   1.154  0.00  0.00    +0.090 C 
ATOM     15  C   UNL     1      -3.648   2.214  -0.755  0.00  0.00    +0.054 A 
ATOM     16  C   UNL     1       1.660   1.651  -1.571  0.00  0.00    +0.068 C 
ATOM     17  C   UNL     1      -1.109  -0.445  -0.320  0.00  0.00    +0.134 A 
ATOM     18  N   UNL     1      -1.587  -1.648   0.196  0.00  0.00    -0.270 N 
ATOM     19  H   UNL     1      -2.540  -1.811   0.282  0.00  0.00    +0.156 HD
ATOM     20  C   UNL     1      -0.686  -2.580   0.573  0.00  0.00    +0.219 C 
ATOM     21  O   UNL     1      -1.075  -3.697   0.844  0.00  0.00    -0.275 OA
ATOM     22  C   UNL     1       0.782  -2.277   0.666  0.00  0.00    +0.109 C 
ENDROOT
BRANCH   1  26
ATOM     23  C   UNL     1       5.033   0.358   0.478  0.00  0.00    +0.162 A 
ATOM     24  C   UNL     1       4.891  -0.427  -0.662  0.00  0.00    +0.162 A 
ATOM     25  C   UNL     1       3.660  -0.987  -0.965  0.00  0.00    +0.053 A 
ATOM     26  C   UNL     1       2.574  -0.756  -0.141  0.00  0.00    -0.036 A 
ATOM     27  C   UNL     1       2.714   0.028   0.989  0.00  0.00    +0.008 A 
ATOM     28  C   UNL     1       3.940   0.585   1.300  0.00  0.00    +0.050 A 
BRANCH  24  29
ATOM     29  O   UNL     1       5.960  -0.652  -1.472  0.00  0.00    -0.491 OA
ATOM     30  C   UNL     1       5.503  -1.491  -2.535  0.00  0.00    +0.277 C 
ENDBRANCH  24  29
BRANCH  23  31
ATOM     31  O   UNL     1       6.240   0.905   0.783  0.00  0.00    -0.489 OA
BRANCH  31  33
ATOM     32  C   UNL     1       7.391   2.295   2.390  0.00  0.00    +0.048 C 
ATOM     33  C   UNL     1       6.063   1.649   1.990  0.00  0.00    +0.226 C 
ENDBRANCH  31  33
ENDBRANCH  23  31
ENDBRANCH   1  26
TORSDOF 4
