REMARK  Name = m211
REMARK  7 active torsions:
REMARK  status: ('A' for Active; 'I' for Inactive)
REMARK    1  A    between atoms: C_1  and  C_2
REMARK    2  A    between atoms: C_2  and  O_3
REMARK    3  A    between atoms: O_3  and  C_4
REMARK    4  A    between atoms: C_6  and  C_7
REMARK    5  A    between atoms: C_14  and  C_15
REMARK    6  A    between atoms: C_24  and  C_25
REMARK    7  A    between atoms: C_30  and  O_31
REMARK                            x       y       z     vdW  Elec       q    Type
REMARK                         _______ _______ _______ _____ _____    ______ ____
ROOT
ATOM      1  C   UNL     1       1.565   0.992   0.303  0.00  0.00    +0.063 C 
ATOM      2  C   UNL     1       0.476  -0.052   0.320  0.00  0.00    +0.023 A 
ATOM      3  C   UNL     1       0.574  -1.431   0.436  0.00  0.00    +0.066 A 
ATOM      4  N   UNL     1      -0.639  -1.933   0.411  0.00  0.00    -0.168 NA
ATOM      5  N   UNL     1      -1.556  -0.877   0.278  0.00  0.00    -0.198 N 
ATOM      6  C   UNL     1      -2.948  -0.996   0.219  0.00  0.00    +0.176 A 
ATOM      7  N   UNL     1      -3.684   0.083   0.098  0.00  0.00    -0.144 NA
ATOM      8  N   UNL     1      -5.076  -0.013   0.032  0.00  0.00    -0.195 N 
ATOM      9  C   UNL     1      -5.685  -1.242   0.105  0.00  0.00    +0.178 A 
ATOM     10  N   UNL     1      -6.989  -1.029   0.022  0.00  0.00    -0.128 NA
ATOM     11  N   UNL     1      -7.206   0.235  -0.094  0.00  0.00    -0.132 NA
ATOM     12  C   UNL     1      -4.893  -2.398   0.240  0.00  0.00    +0.054 A 
ATOM     13  C   UNL     1      -6.072   0.890  -0.092  0.00  0.00    +0.152 A 
ATOM     14  C   UNL     1      -5.908   2.384  -0.208  0.00  0.00    +0.090 C 
ATOM     15  C   UNL     1      -3.541  -2.270   0.296  0.00  0.00    +0.054 A 
ATOM     16  C   UNL     1       1.852  -2.218   0.568  0.00  0.00    +0.068 C 
ATOM     17  C   UNL     1      -0.850   0.272   0.217  0.00  0.00    +0.134 A 
ATOM     18  N   UNL     1      -1.279   1.590   0.074  0.00  0.00    -0.270 N 
ATOM     19  H   UNL     1      -2.218   1.821   0.148  0.00  0.00    +0.156 HD
ATOM     20  C   UNL     1      -0.349   2.538  -0.171  0.00  0.00    +0.219 C 
ATOM     21  O   UNL     1      -0.670   3.706  -0.112  0.00  0.00    -0.275 OA
ATOM     22  C   UNL     1       1.072   2.189  -0.515  0.00  0.00    +0.109 C 
ENDROOT
BRANCH   1  27
ATOM     23  C   UNL     1       5.132  -0.148  -0.196  0.00  0.00    +0.162 A 
ATOM     24  C   UNL     1       5.088  -0.625  -1.502  0.00  0.00    +0.158 A 
ATOM     25  C   UNL     1       3.898  -0.584  -2.212  0.00  0.00    +0.049 A 
ATOM     26  C   UNL     1       2.762  -0.059  -1.626  0.00  0.00    +0.008 A 
ATOM     27  C   UNL     1       2.807   0.420  -0.330  0.00  0.00    -0.036 A 
ATOM     28  C   UNL     1       3.989   0.377   0.386  0.00  0.00    +0.053 A 
BRANCH  24  29
ATOM     29  O   UNL     1       6.207  -1.142  -2.077  0.00  0.00    -0.503 OA
ATOM     30  H   UNL     1       6.658  -0.409  -2.518  0.00  0.00    +0.292 HD
ENDBRANCH  24  29
BRANCH  23  31
ATOM     31  O   UNL     1       6.295  -0.192   0.507  0.00  0.00    -0.489 OA
BRANCH  31  33
ATOM     32  C   UNL     1       7.297   0.349   2.638  0.00  0.00    +0.048 C 
ATOM     33  C   UNL     1       6.022   0.368   1.793  0.00  0.00    +0.226 C 
ENDBRANCH  31  33
ENDBRANCH  23  31
ENDBRANCH   1  27
TORSDOF 4
