REMARK  Name = m212
REMARK  8 active torsions:
REMARK  status: ('A' for Active; 'I' for Inactive)
REMARK    1  A    between atoms: C_1  and  C_2
REMARK    2  A    between atoms: C_2  and  C_3
REMARK    3  A    between atoms: C_3  and  C_4
REMARK    4  A    between atoms: C_4  and  O_5
REMARK    5  A    between atoms: O_5  and  C_6
REMARK    6  A    between atoms: C_11  and  C_12
REMARK    7  A    between atoms: C_19  and  C_20
REMARK    8  A    between atoms: C_29  and  C_30
REMARK                            x       y       z     vdW  Elec       q    Type
REMARK                         _______ _______ _______ _____ _____    ______ ____
ROOT
ATOM      1  C   UNL     1       1.500   0.367  -0.711  0.00  0.00    +0.066 C 
ATOM      2  C   UNL     1       0.356  -0.353  -0.044  0.00  0.00    +0.023 A 
ATOM      3  C   UNL     1       0.368  -1.490   0.752  0.00  0.00    +0.066 A 
ATOM      4  N   UNL     1      -0.865  -1.749   1.120  0.00  0.00    -0.168 NA
ATOM      5  N   UNL     1      -1.710  -0.775   0.563  0.00  0.00    -0.198 N 
ATOM      6  C   UNL     1      -3.097  -0.696   0.724  0.00  0.00    +0.176 A 
ATOM      7  N   UNL     1      -3.761   0.278   0.147  0.00  0.00    -0.144 NA
ATOM      8  N   UNL     1      -5.146   0.372   0.291  0.00  0.00    -0.195 N 
ATOM      9  C   UNL     1      -5.824  -0.551   1.049  0.00  0.00    +0.178 A 
ATOM     10  N   UNL     1      -7.104  -0.214   1.010  0.00  0.00    -0.128 NA
ATOM     11  N   UNL     1      -7.242   0.842   0.287  0.00  0.00    -0.132 NA
ATOM     12  C   UNL     1      -5.109  -1.591   1.672  0.00  0.00    +0.054 A 
ATOM     13  C   UNL     1      -6.079   1.233  -0.171  0.00  0.00    +0.152 A 
ATOM     14  C   UNL     1      -5.826   2.428  -1.054  0.00  0.00    +0.090 C 
ATOM     15  C   UNL     1      -3.761  -1.658   1.508  0.00  0.00    +0.054 A 
ATOM     16  C   UNL     1       1.588  -2.289   1.130  0.00  0.00    +0.068 C 
ATOM     17  C   UNL     1      -0.941   0.071  -0.155  0.00  0.00    +0.134 A 
ATOM     18  N   UNL     1      -1.289   1.192  -0.907  0.00  0.00    -0.270 N 
ATOM     19  H   UNL     1      -2.182   1.567  -0.861  0.00  0.00    +0.156 HD
ATOM     20  C   UNL     1      -0.345   1.741  -1.702  0.00  0.00    +0.219 C 
ATOM     21  O   UNL     1      -0.564   2.818  -2.216  0.00  0.00    -0.275 OA
ATOM     22  C   UNL     1       0.967   1.059  -1.969  0.00  0.00    +0.109 C 
ENDROOT
BRANCH   1  24
ATOM     23  C   UNL     1       3.858  -0.477  -0.597  0.00  0.00    +0.124 A 
ATOM     24  C   UNL     1       2.571  -0.623  -1.091  0.00  0.00    +0.002 A 
ATOM     25  C   UNL     1       2.273  -1.670  -1.943  0.00  0.00    +0.008 A 
ATOM     26  C   UNL     1       3.255  -2.579  -2.292  0.00  0.00    +0.001 A 
ATOM     27  C   UNL     1       4.538  -2.439  -1.796  0.00  0.00    +0.004 A 
ATOM     28  C   UNL     1       4.842  -1.390  -0.949  0.00  0.00    +0.046 A 
BRANCH  23  29
ATOM     29  O   UNL     1       4.155   0.555   0.236  0.00  0.00    -0.492 OA
BRANCH  29  30
ATOM     30  C   UNL     1       5.538   0.430   0.572  0.00  0.00    +0.229 C 
BRANCH  30  31
ATOM     31  C   UNL     1       5.939   1.568   1.513  0.00  0.00    +0.041 C 
BRANCH  31  33
ATOM     32  C   UNL     1       7.821   2.573   2.814  0.00  0.00    +0.004 C 
ATOM     33  C   UNL     1       7.420   1.435   1.873  0.00  0.00    -0.000 C 
ENDBRANCH  31  33
ENDBRANCH  30  31
ENDBRANCH  29  30
ENDBRANCH  23  29
ENDBRANCH   1  24
TORSDOF 5
