REMARK  Name = m213
REMARK  11 active torsions:
REMARK  status: ('A' for Active; 'I' for Inactive)
REMARK    1  A    between atoms: C_1  and  C_2
REMARK    2  A    between atoms: C_2  and  O_3
REMARK    3  A    between atoms: O_3  and  C_4
REMARK    4  A    between atoms: C_4  and  C_6
REMARK    5  A    between atoms: C_7  and  S_8
REMARK    6  A    between atoms: S_8  and  N_11
REMARK    7  A    between atoms: C_15  and  C_16
REMARK    8  A    between atoms: C_22  and  C_23
REMARK    9  A    between atoms: C_27  and  C_28
REMARK   10  A    between atoms: N_29  and  C_30
REMARK   11  A    between atoms: C_31  and  C_32
REMARK                            x       y       z     vdW  Elec       q    Type
REMARK                         _______ _______ _______ _____ _____    ______ ____
ROOT
ATOM      1  N   UNL     1      -1.355   1.880   0.839  0.00  0.00    -0.176 NA
ATOM      2  C   UNL     1      -0.021   1.321   1.098  0.00  0.00    +0.122 C 
ATOM      3  C   UNL     1       0.729   1.209  -0.238  0.00  0.00    +0.091 C 
ATOM      4  C   UNL     1       0.743   2.576  -0.925  0.00  0.00    +0.015 C 
ATOM      5  C   UNL     1      -0.693   3.018  -1.215  0.00  0.00    +0.018 C 
ATOM      6  C   UNL     1      -1.460   3.148   0.105  0.00  0.00    +0.109 C 
ENDROOT
BRANCH   3   7
ATOM      7  C   UNL     1       2.144   0.759   0.018  0.00  0.00    +0.223 C 
ATOM      8  N   UNL     1       2.997   0.597  -1.014  0.00  0.00    -0.270 N 
ATOM      9  H   UNL     1       2.679   0.694  -1.925  0.00  0.00    +0.156 HD
ATOM     10  C   UNL     1       4.334   0.287  -0.771  0.00  0.00    +0.125 A 
ATOM     11  N   UNL     1       4.740   0.060   0.469  0.00  0.00    -0.240 NA
ATOM     12  C   UNL     1       5.995  -0.241   0.741  0.00  0.00    +0.116 A 
ATOM     13  C   UNL     1       6.939  -0.318  -0.263  0.00  0.00    -0.032 A 
ATOM     14  C   UNL     1       8.371  -0.656   0.062  0.00  0.00    +0.045 C 
ATOM     15  C   UNL     1       6.555  -0.081  -1.576  0.00  0.00    +0.008 A 
ATOM     16  C   UNL     1       5.231   0.227  -1.831  0.00  0.00    +0.044 A 
ATOM     17  O   UNL     1       2.517   0.545   1.152  0.00  0.00    -0.275 OA
ENDBRANCH   3   7
BRANCH   1  18
ATOM     18  S   UNL     1      -2.715   1.099   1.371  0.00  0.00    +0.063 S 
ATOM     19  O   UNL     1      -2.289   0.267   2.442  0.00  0.00    -0.153 OA
ATOM     20  O   UNL     1      -3.725   2.095   1.456  0.00  0.00    -0.153 OA
BRANCH  18  28
ATOM     21  C   UNL     1      -2.817  -1.393  -0.091  0.00  0.00    +0.106 A 
ATOM     22  C   UNL     1      -3.468  -1.837  -1.222  0.00  0.00    +0.031 A 
ATOM     23  C   UNL     1      -3.364  -3.217  -1.818  0.00  0.00    +0.064 C 
ATOM     24  N   UNL     1      -4.219  -0.826  -1.699  0.00  0.00    -0.349 N 
ATOM     25  C   UNL     1      -5.065  -0.904  -2.893  0.00  0.00    +0.149 C 
ATOM     26  C   UNL     1      -4.076   0.282  -0.916  0.00  0.00    +0.043 A 
ATOM     27  C   UNL     1      -4.759   1.607  -1.143  0.00  0.00    +0.065 C 
ATOM     28  C   UNL     1      -3.229   0.004   0.090  0.00  0.00    +0.140 A 
BRANCH  21  29
ATOM     29  C   UNL     1      -1.893  -2.161   0.758  0.00  0.00    +0.343 C 
ATOM     30  O   UNL     1      -2.320  -2.794   1.703  0.00  0.00    -0.245 OA
BRANCH  29  31
ATOM     31  O   UNL     1      -0.572  -2.163   0.487  0.00  0.00    -0.461 OA
BRANCH  31  33
ATOM     32  C   UNL     1       1.769  -2.754   0.804  0.00  0.00    +0.048 C 
ATOM     33  C   UNL     1       0.340  -2.921   1.325  0.00  0.00    +0.229 C 
ENDBRANCH  31  33
ENDBRANCH  29  31
ENDBRANCH  21  29
ENDBRANCH  18  28
ENDBRANCH   1  18
TORSDOF 6
