REMARK  Name = m214
REMARK  9 active torsions:
REMARK  status: ('A' for Active; 'I' for Inactive)
REMARK    1  A    between atoms: C_1  and  O_2
REMARK    2  A    between atoms: O_2  and  C_3
REMARK    3  A    between atoms: C_3  and  C_5
REMARK    4  A    between atoms: C_7  and  C_8
REMARK    5  A    between atoms: N_14  and  C_15
REMARK    6  A    between atoms: C_15  and  C_16
REMARK    7  A    between atoms: N_24  and  C_25
REMARK    8  A    between atoms: C_30  and  O_31
REMARK    9  A    between atoms: O_31  and  C_32
REMARK                            x       y       z     vdW  Elec       q    Type
REMARK                         _______ _______ _______ _____ _____    ______ ____
ROOT
ATOM      1  C   UNL     1       0.953   2.603   0.366  0.00  0.00    +0.077 A 
ATOM      2  C   UNL     1       0.501   1.317   0.030  0.00  0.00    +0.096 A 
ATOM      3  C   UNL     1       1.375   0.331  -0.627  0.00  0.00    +0.267 A 
ATOM      4  N   UNL     1       0.863  -0.889  -0.907  0.00  0.00    -0.256 N 
ATOM      5  C   UNL     1      -0.406  -1.195  -0.596  0.00  0.00    +0.338 A 
ATOM      6  N   UNL     1      -1.243  -0.328  -0.002  0.00  0.00    -0.242 N 
ATOM      7  O   UNL     1      -0.819  -2.306  -0.869  0.00  0.00    -0.246 OA
ATOM      8  O   UNL     1       2.525   0.605  -0.909  0.00  0.00    -0.267 OA
ATOM      9  C   UNL     1      -0.820   0.947   0.335  0.00  0.00    +0.155 A 
ATOM     10  N   UNL     1      -1.632   1.809   0.924  0.00  0.00    -0.233 NA
ATOM     11  C   UNL     1      -1.239   3.024   1.248  0.00  0.00    +0.041 A 
ATOM     12  C   UNL     1      -2.215   3.957   1.919  0.00  0.00    +0.065 C 
ATOM     13  C   UNL     1       0.048   3.466   0.988  0.00  0.00    +0.039 A 
ENDROOT
BRANCH   6  14
ATOM     14  C   UNL     1      -2.556  -0.723   0.291  0.00  0.00    +0.094 A 
ATOM     15  C   UNL     1      -3.571  -0.521  -0.641  0.00  0.00    +0.144 A 
ATOM     16  C   UNL     1      -4.866  -0.918  -0.348  0.00  0.00    +0.048 A 
ATOM     17  C   UNL     1      -5.150  -1.503   0.871  0.00  0.00    +0.004 A 
ATOM     18  C   UNL     1      -4.144  -1.699   1.800  0.00  0.00    +0.002 A 
ATOM     19  C   UNL     1      -2.849  -1.311   1.513  0.00  0.00    +0.030 A 
BRANCH  15  20
ATOM     20  O   UNL     1      -3.289   0.055  -1.840  0.00  0.00    -0.493 OA
ATOM     21  C   UNL     1      -4.517   0.112  -2.570  0.00  0.00    +0.277 C 
ENDBRANCH  15  20
ENDBRANCH   6  14
BRANCH   1  22
ATOM     22  C   UNL     1       2.339   3.031   0.067  0.00  0.00    +0.340 C 
ATOM     23  O   UNL     1       3.277   2.352   0.432  0.00  0.00    -0.245 OA
BRANCH  22  25
ATOM     24  C   UNL     1       3.918   4.594  -0.903  0.00  0.00    +0.280 C 
ATOM     25  O   UNL     1       2.559   4.175  -0.610  0.00  0.00    -0.464 OA
ENDBRANCH  22  25
ENDBRANCH   1  22
BRANCH   4  26
ATOM     26  C   UNL     1       1.708  -1.892  -1.560  0.00  0.00    +0.165 C 
BRANCH  26  27
ATOM     27  C   UNL     1       2.422  -2.706  -0.512  0.00  0.00    -0.025 A 
ATOM     28  C   UNL     1       3.666  -2.320  -0.039  0.00  0.00    +0.025 A 
ATOM     29  C   UNL     1       4.289  -3.089   0.926  0.00  0.00    +0.111 A 
ATOM     30  N   UNL     1       3.717  -4.183   1.389  0.00  0.00    -0.263 NA
ATOM     31  C   UNL     1       2.537  -4.584   0.958  0.00  0.00    +0.111 A 
ATOM     32  C   UNL     1       1.852  -3.863  -0.002  0.00  0.00    +0.025 A 
ENDBRANCH  26  27
ENDBRANCH   4  26
TORSDOF 6
