REMARK  Name = m215
REMARK  8 active torsions:
REMARK  status: ('A' for Active; 'I' for Inactive)
REMARK    1  A    between atoms: C_1  and  C_2
REMARK    2  A    between atoms: C_2  and  S_3
REMARK    3  A    between atoms: S_3  and  C_4
REMARK    4  A    between atoms: C_7  and  C_8
REMARK    5  A    between atoms: N_10  and  C_11
REMARK    6  A    between atoms: N_15  and  S_16
REMARK    7  A    between atoms: S_16  and  C_19
REMARK    8  A    between atoms: N_28  and  C_29
REMARK                            x       y       z     vdW  Elec       q    Type
REMARK                         _______ _______ _______ _____ _____    ______ ____
ROOT
ATOM      1  C   UNL     1       1.176  -1.602  -0.480  0.00  0.00    +0.134 A 
ATOM      2  C   UNL     1      -0.069  -1.693   0.160  0.00  0.00    +0.020 A 
ATOM      3  C   UNL     1      -0.521  -0.989   1.417  0.00  0.00    +0.148 C 
ATOM      4  N   UNL     1      -1.978  -1.185   1.527  0.00  0.00    -0.172 NA
ATOM      5  C   UNL     1      -2.524  -2.525   1.267  0.00  0.00    +0.116 C 
ATOM      6  C   UNL     1      -2.269  -2.900  -0.197  0.00  0.00    +0.072 C 
ATOM      7  C   UNL     1      -0.847  -2.544  -0.551  0.00  0.00    +0.045 A 
ATOM      8  N   UNL     1      -0.124  -2.991  -1.595  0.00  0.00    -0.270 N 
ATOM      9  C   UNL     1      -0.581  -3.940  -2.614  0.00  0.00    +0.172 C 
ATOM     10  N   UNL     1       1.142  -2.390  -1.539  0.00  0.00    -0.168 NA
ENDROOT
BRANCH   1  14
ATOM     11  C   UNL     1       4.279   0.188   0.091  0.00  0.00    +0.192 A 
ATOM     12  N   UNL     1       3.547  -0.682  -0.666  0.00  0.00    -0.304 N 
ATOM     13  C   UNL     1       3.977  -1.377  -1.882  0.00  0.00    +0.153 C 
ATOM     14  C   UNL     1       2.323  -0.776  -0.044  0.00  0.00    +0.185 A 
ATOM     15  N   UNL     1       2.364   0.009   1.007  0.00  0.00    -0.127 NA
ATOM     16  N   UNL     1       3.515   0.576   1.086  0.00  0.00    -0.122 NA
BRANCH  11  17
ATOM     17  S   UNL     1       5.938   0.699  -0.215  0.00  0.00    -0.086 S 
BRANCH  17  19
ATOM     18  C   UNL     1       7.594   2.409   1.124  0.00  0.00    +0.016 C 
ATOM     19  C   UNL     1       6.181   1.825   1.181  0.00  0.00    +0.074 C 
ENDBRANCH  17  19
ENDBRANCH  11  17
ENDBRANCH   1  14
BRANCH   4  20
ATOM     20  S   UNL     1      -2.975   0.073   1.935  0.00  0.00    +0.061 S 
ATOM     21  O   UNL     1      -2.154   1.013   2.613  0.00  0.00    -0.153 OA
ATOM     22  O   UNL     1      -4.152  -0.522   2.463  0.00  0.00    -0.153 OA
BRANCH  20  23
ATOM     23  C   UNL     1      -3.468   0.861   0.437  0.00  0.00    +0.107 A 
ATOM     24  C   UNL     1      -2.717   1.901  -0.076  0.00  0.00    +0.048 A 
ATOM     25  C   UNL     1      -3.102   2.516  -1.254  0.00  0.00    +0.043 A 
ATOM     26 CL   UNL     1      -2.156   3.819  -1.903  0.00  0.00    -0.083 Cl
ATOM     27  C   UNL     1      -4.244   2.096  -1.913  0.00  0.00    +0.020 A 
ATOM     28  C   UNL     1      -4.997   1.058  -1.396  0.00  0.00    +0.003 A 
ATOM     29  C   UNL     1      -4.610   0.441  -0.221  0.00  0.00    +0.028 A 
ENDBRANCH  20  23
ENDBRANCH   4  20
TORSDOF 5
