REMARK  Name = m216
REMARK  11 active torsions:
REMARK  status: ('A' for Active; 'I' for Inactive)
REMARK    1  A    between atoms: C_1  and  C_2
REMARK    2  A    between atoms: C_2  and  C_3
REMARK    3  A    between atoms: C_2  and  C_4
REMARK    4  A    between atoms: C_2  and  C_5
REMARK    5  A    between atoms: C_10  and  C_11
REMARK    6  A    between atoms: C_11  and  N_12
REMARK    7  A    between atoms: C_16  and  C_17
REMARK    8  A    between atoms: C_18  and  C_19
REMARK    9  A    between atoms: N_21  and  C_22
REMARK   10  A    between atoms: C_22  and  C_23
REMARK   11  A    between atoms: C_23  and  O_24
REMARK                            x       y       z     vdW  Elec       q    Type
REMARK                         _______ _______ _______ _____ _____    ______ ____
ROOT
ATOM      1  N   UNL     1       1.782   0.483   0.351  0.00  0.00    -0.293 NA
ATOM      2  C   UNL     1       0.487   0.050  -0.191  0.00  0.00    +0.121 C 
ATOM      3  C   UNL     1      -0.402  -0.450   0.949  0.00  0.00    +0.164 C 
ATOM      4  O   UNL     1      -0.667   0.618   1.858  0.00  0.00    -0.369 OA
ATOM      5  C   UNL     1       0.585   1.014   2.420  0.00  0.00    +0.176 C 
ATOM      6  C   UNL     1       1.499   1.551   1.318  0.00  0.00    +0.113 C 
ENDROOT
BRANCH   3   7
ATOM      7  C   UNL     1      -1.702  -0.961   0.383  0.00  0.00    +0.011 A 
ATOM      8  C   UNL     1      -1.935  -2.344   0.294  0.00  0.00    +0.014 A 
ATOM      9  C   UNL     1      -3.189  -2.719  -0.248  0.00  0.00    +0.109 A 
ATOM     10  N   UNL     1      -3.553  -3.973  -0.391  0.00  0.00    -0.248 NA
ATOM     11  C   UNL     1      -2.759  -4.961  -0.027  0.00  0.00    +0.112 A 
ATOM     12  C   UNL     1      -1.512  -4.696   0.519  0.00  0.00    +0.020 A 
ATOM     13  S   UNL     1      -3.958  -1.158  -0.609  0.00  0.00    -0.064 S 
ATOM     14  C   UNL     1      -1.086  -3.411   0.689  0.00  0.00    +0.012 A 
ATOM     15  C   UNL     1      -2.648  -0.086  -0.046  0.00  0.00    +0.082 A 
BRANCH  15  16
ATOM     16  C   UNL     1      -2.604   1.383  -0.048  0.00  0.00    +0.251 C 
ATOM     17  N   UNL     1      -3.651   2.089  -0.519  0.00  0.00    -0.309 N 
ATOM     18  H   UNL     1      -4.434   1.627  -0.857  0.00  0.00    +0.149 HD
ATOM     19  O   UNL     1      -1.621   1.962   0.377  0.00  0.00    -0.270 OA
BRANCH  17  20
ATOM     20  C   UNL     1      -3.606   3.553  -0.520  0.00  0.00    +0.132 C 
BRANCH  20  21
ATOM     21  C   UNL     1      -4.910   4.103  -1.102  0.00  0.00    +0.174 C 
BRANCH  21  22
ATOM     22  O   UNL     1      -5.998   3.758  -0.243  0.00  0.00    -0.393 OA
ATOM     23  H   UNL     1      -6.798   4.122  -0.645  0.00  0.00    +0.209 HD
ENDBRANCH  21  22
ENDBRANCH  20  21
ENDBRANCH  17  20
ENDBRANCH  15  16
ENDBRANCH   3   7
BRANCH   1  24
ATOM     24  C   UNL     1       2.518   1.103  -0.760  0.00  0.00    +0.123 C 
BRANCH  24  26
ATOM     25  C   UNL     1       4.978   0.408  -0.344  0.00  0.00    +0.073 A 
ATOM     26  C   UNL     1       3.944   1.350  -0.341  0.00  0.00    +0.007 A 
ATOM     27  C   UNL     1       4.450   2.521   0.111  0.00  0.00    +0.110 A 
ATOM     28  N   UNL     1       5.759   2.329   0.376  0.00  0.00    -0.284 N 
ATOM     29  H   UNL     1       6.377   2.997   0.711  0.00  0.00    +0.188 HD
ATOM     30  N   UNL     1       6.067   0.994   0.083  0.00  0.00    -0.178 NA
BRANCH  25  32
ATOM     31  C   UNL     1       6.185  -1.752  -0.513  0.00  0.00    +0.017 C 
ATOM     32  C   UNL     1       4.859  -1.033  -0.770  0.00  0.00    +0.007 C 
ATOM     33  C   UNL     1       3.747  -1.712   0.031  0.00  0.00    +0.017 C 
ATOM     34  C   UNL     1       4.525  -1.097  -2.262  0.00  0.00    +0.017 C 
ENDBRANCH  25  32
ENDBRANCH  24  26
ENDBRANCH   1  24
TORSDOF 8
