REMARK  Name = m217
REMARK  6 active torsions:
REMARK  status: ('A' for Active; 'I' for Inactive)
REMARK    1  A    between atoms: C_1  and  C_2
REMARK    2  A    between atoms: C_5  and  C_6
REMARK    3  A    between atoms: C_11  and  C_12
REMARK    4  A    between atoms: C_12  and  N_13
REMARK    5  A    between atoms: N_13  and  C_14
REMARK    6  A    between atoms: C_17  and  N_18
REMARK                            x       y       z     vdW  Elec       q    Type
REMARK                         _______ _______ _______ _____ _____    ______ ____
ROOT
ATOM      1  C   UNL     1       1.485  -1.416   0.676  0.00  0.00    +0.140 C 
ENDROOT
BRANCH   1   3
ATOM      2  C   UNL     1       3.877  -0.639   0.016  0.00  0.00    +0.132 A 
ATOM      3  C   UNL     1       2.916  -1.641   0.262  0.00  0.00    +0.018 A 
ATOM      4  C   UNL     1       3.504  -2.839   0.053  0.00  0.00    +0.110 A 
ATOM      5  N   UNL     1       4.788  -2.617  -0.304  0.00  0.00    -0.284 N 
ATOM      6  H   UNL     1       5.447  -3.298  -0.511  0.00  0.00    +0.188 HD
ATOM      7  N   UNL     1       5.004  -1.233  -0.321  0.00  0.00    -0.170 NA
BRANCH   2  11
ATOM      8  C   UNL     1       1.654   3.858  -0.184  0.00  0.00    +0.086 C 
ATOM      9  C   UNL     1       2.693   2.789   0.038  0.00  0.00    +0.103 A 
ATOM     10  O   UNL     1       2.523   1.474  -0.179  0.00  0.00    -0.458 OA
ATOM     11  C   UNL     1       3.661   0.820   0.124  0.00  0.00    +0.155 A 
ATOM     12  C   UNL     1       4.573   1.732   0.551  0.00  0.00    +0.052 A 
ATOM     13  C   UNL     1       3.945   2.993   0.493  0.00  0.00    +0.045 A 
ENDBRANCH   2  11
ENDBRANCH   1   3
BRANCH   1  14
ATOM     14  N   UNL     1       0.687  -1.059  -0.500  0.00  0.00    -0.340 N 
ATOM     15  H   UNL     1       1.107  -1.002  -1.372  0.00  0.00    +0.146 HD
BRANCH  14  16
ATOM     16  C   UNL     1      -0.680  -0.801  -0.365  0.00  0.00    +0.027 A 
ATOM     17  C   UNL     1      -1.284  -0.889   0.883  0.00  0.00    +0.025 A 
ATOM     18  C   UNL     1      -2.633  -0.629   1.017  0.00  0.00    +0.029 A 
ATOM     19  C   UNL     1      -3.389  -0.290  -0.097  0.00  0.00    +0.067 A 
ATOM     20  C   UNL     1      -2.787  -0.208  -1.345  0.00  0.00    +0.029 A 
ATOM     21  C   UNL     1      -1.437  -0.462  -1.479  0.00  0.00    +0.025 A 
BRANCH  19  22
ATOM     22  N   UNL     1      -4.761  -0.032   0.039  0.00  0.00    -0.220 N 
ATOM     23  N   UNL     1      -5.419   0.895  -0.566  0.00  0.00    -0.061 NA
ATOM     24  N   UNL     1      -6.658   0.859  -0.222  0.00  0.00    -0.138 NA
ATOM     25  C   UNL     1      -6.837  -0.132   0.659  0.00  0.00    +0.156 A 
ATOM     26  C   UNL     1      -5.627  -0.713   0.837  0.00  0.00    +0.136 A 
ENDBRANCH  19  22
ENDBRANCH  14  16
ENDBRANCH   1  14
TORSDOF 5
