REMARK  Name = m218
REMARK  7 active torsions:
REMARK  status: ('A' for Active; 'I' for Inactive)
REMARK    1  A    between atoms: C_1  and  C_2
REMARK    2  A    between atoms: C_2  and  C_3
REMARK    3  A    between atoms: C_2  and  C_4
REMARK    4  A    between atoms: C_4  and  N_5
REMARK    5  A    between atoms: N_8  and  C_9
REMARK    6  A    between atoms: C_17  and  N_18
REMARK    7  A    between atoms: C_19  and  C_21
REMARK                            x       y       z     vdW  Elec       q    Type
REMARK                         _______ _______ _______ _____ _____    ______ ____
ROOT
ATOM      1  N   UNL     1       3.978   0.629   0.436  0.00  0.00    -0.279 N 
ATOM      2  C   UNL     1       2.625   0.381   0.438  0.00  0.00    +0.132 A 
ATOM      3  C   UNL     1       2.186  -0.925   0.205  0.00  0.00    +0.124 A 
ATOM      4  C   UNL     1       0.729  -0.896   0.256  0.00  0.00    +0.171 A 
ATOM      5  C   UNL     1       0.378   0.423   0.511  0.00  0.00    +0.087 A 
ATOM      6  C   UNL     1      -0.981   0.767   0.618  0.00  0.00    +0.060 A 
ATOM      7  C   UNL     1      -1.933  -0.219   0.467  0.00  0.00    +0.121 A 
ATOM      8  C   UNL     1      -1.523  -1.543   0.209  0.00  0.00    +0.359 A 
ATOM      9  O   UNL     1      -2.359  -2.421   0.074  0.00  0.00    -0.243 OA
ATOM     10  O   UNL     1      -0.217  -1.844   0.112  0.00  0.00    -0.418 OA
ATOM     11  C   UNL     1       3.181  -1.972  -0.020  0.00  0.00    +0.269 A 
ATOM     12  O   UNL     1       2.841  -3.123  -0.221  0.00  0.00    -0.267 OA
ATOM     13  N   UNL     1       4.489  -1.630   0.002  0.00  0.00    -0.263 N 
ATOM     14  C   UNL     1       5.509  -2.658  -0.219  0.00  0.00    +0.157 C 
ATOM     15  N   UNL     1       1.539   1.173   0.612  0.00  0.00    -0.338 N 
ATOM     16  H   UNL     1       1.571   2.127   0.787  0.00  0.00    +0.167 HD
ATOM     17  C   UNL     1       4.862  -0.360   0.225  0.00  0.00    +0.333 A 
ATOM     18  O   UNL     1       6.049  -0.094   0.237  0.00  0.00    -0.246 OA
ENDROOT
BRANCH   7  19
ATOM     19  N   UNL     1      -3.296   0.092   0.569  0.00  0.00    -0.275 N 
ATOM     20  H   UNL     1      -3.644   0.490   1.382  0.00  0.00    +0.155 HD
ATOM     21  C   UNL     1      -4.125  -0.161  -0.464  0.00  0.00    +0.255 C 
ATOM     22  O   UNL     1      -3.703  -0.723  -1.459  0.00  0.00    -0.269 OA
BRANCH  21  23
ATOM     23  C   UNL     1      -5.532   0.239  -0.390  0.00  0.00    +0.074 A 
ATOM     24  S   UNL     1      -6.400   1.058   0.936  0.00  0.00    -0.092 S 
ATOM     25  C   UNL     1      -7.970   1.143   0.206  0.00  0.00    +0.046 A 
ATOM     26  C   UNL     1      -7.784   0.547  -1.000  0.00  0.00    +0.008 A 
ATOM     27  C   UNL     1      -6.538   0.074  -1.329  0.00  0.00    +0.021 A 
ENDBRANCH  21  23
ENDBRANCH   7  19
BRANCH   1  28
ATOM     28  C   UNL     1       4.462   1.991   0.672  0.00  0.00    +0.131 C 
BRANCH  28  30
ATOM     29  C   UNL     1       4.971   4.186  -0.407  0.00  0.00    +0.009 C 
ATOM     30  C   UNL     1       4.586   2.728  -0.663  0.00  0.00    +0.003 C 
ATOM     31  C   UNL     1       5.665   2.058  -1.517  0.00  0.00    +0.009 C 
ENDBRANCH  28  30
ENDBRANCH   1  28
TORSDOF 4
