REMARK  Name = m219
REMARK  4 active torsions:
REMARK  status: ('A' for Active; 'I' for Inactive)
REMARK    1  A    between atoms: C_1  and  O_2
REMARK    2  A    between atoms: O_2  and  C_3
REMARK    3  A    between atoms: C_7  and  C_8
REMARK    4  A    between atoms: C_12  and  C_13
REMARK                            x       y       z     vdW  Elec       q    Type
REMARK                         _______ _______ _______ _____ _____    ______ ____
ROOT
ATOM      1  C   UNL     1       1.283   0.017  -0.217  0.00  0.00    +0.103 A 
ATOM      2  C   UNL     1       0.053  -0.608  -0.098  0.00  0.00    +0.134 A 
ATOM      3  N   UNL     1       0.305  -1.984  -0.053  0.00  0.00    -0.303 N 
ATOM      4  C   UNL     1      -0.503  -3.206   0.022  0.00  0.00    +0.148 C 
ATOM      5  C   UNL     1       0.320  -4.410   0.540  0.00  0.00    +0.197 C 
ATOM      6  S   UNL     1       1.996  -3.849   0.018  0.00  0.00    +0.032 S 
ATOM      7  O   UNL     1       2.942  -3.926   1.075  0.00  0.00    -0.166 OA
ATOM      8  O   UNL     1       2.300  -4.229  -1.317  0.00  0.00    -0.166 OA
ATOM      9  C   UNL     1       1.646  -2.106  -0.109  0.00  0.00    +0.252 A 
ATOM     10  N   UNL     1       2.219  -0.943  -0.221  0.00  0.00    -0.211 NA
ENDROOT
BRANCH   2  11
ATOM     11  C   UNL     1      -1.257   0.043  -0.040  0.00  0.00    +0.268 C 
ATOM     12  N   UNL     1      -2.376  -0.702   0.068  0.00  0.00    -0.259 N 
ATOM     13  H   UNL     1      -2.313  -1.669   0.108  0.00  0.00    +0.157 HD
ATOM     14  C   UNL     1      -3.618  -0.084   0.123  0.00  0.00    +0.165 A 
ATOM     15  S   UNL     1      -3.998   1.610   0.080  0.00  0.00    -0.061 S 
ATOM     16  C   UNL     1      -5.774   1.454   0.199  0.00  0.00    +0.068 A 
ATOM     17  C   UNL     1      -5.904   0.106   0.268  0.00  0.00    +0.120 A 
ATOM     18  N   UNL     1      -4.813  -0.633   0.228  0.00  0.00    -0.233 NA
ATOM     19  O   UNL     1      -1.337   1.257  -0.090  0.00  0.00    -0.268 OA
ENDBRANCH   2  11
BRANCH   1  22
ATOM     20  C   UNL     1       2.811   3.420   0.263  0.00  0.00    +0.121 A 
ATOM     21  C   UNL     1       2.598   2.055   0.354  0.00  0.00    +0.055 A 
ATOM     22  C   UNL     1       1.520   1.476  -0.315  0.00  0.00    +0.006 A 
ATOM     23  C   UNL     1       0.670   2.274  -1.080  0.00  0.00    +0.010 A 
ATOM     24  C   UNL     1       0.894   3.633  -1.169  0.00  0.00    +0.004 A 
ATOM     25  C   UNL     1       1.959   4.207  -0.501  0.00  0.00    +0.045 A 
BRANCH  20  27
ATOM     26  C   UNL     1       3.814   5.388   0.628  0.00  0.00    +0.277 C 
ATOM     27  O   UNL     1       3.857   3.990   0.918  0.00  0.00    -0.495 OA
ENDBRANCH  20  27
ENDBRANCH   1  22
TORSDOF 3
