REMARK  Name = m220
REMARK  6 active torsions:
REMARK  status: ('A' for Active; 'I' for Inactive)
REMARK    1  A    between atoms: C_1  and  C_2
REMARK    2  A    between atoms: C_3  and  C_4
REMARK    3  A    between atoms: C_6  and  C_7
REMARK    4  A    between atoms: N_19  and  C_20
REMARK    5  A    between atoms: C_20  and  C_21
REMARK    6  A    between atoms: N_23  and  C_24
REMARK                            x       y       z     vdW  Elec       q    Type
REMARK                         _______ _______ _______ _____ _____    ______ ____
ROOT
ATOM      1  C   UNL     1       0.704   1.684  -1.214  0.00  0.00    +0.046 C 
ATOM      2  C   UNL     1       0.716   0.253  -0.741  0.00  0.00    -0.017 A 
ATOM      3  C   UNL     1      -0.469  -0.491  -0.728  0.00  0.00    +0.076 A 
ATOM      4  C   UNL     1      -0.353  -1.823  -0.272  0.00  0.00    +0.116 A 
ATOM      5  N   UNL     1      -1.400  -2.637  -0.214  0.00  0.00    -0.230 NA
ATOM      6  C   UNL     1      -2.590  -2.248  -0.581  0.00  0.00    +0.203 A 
ATOM      7  N   UNL     1      -2.824  -0.994  -1.041  0.00  0.00    -0.290 N 
ATOM      8  S   UNL     1       1.371  -1.970   0.123  0.00  0.00    -0.063 S 
ATOM      9  C   UNL     1      -1.832  -0.087  -1.140  0.00  0.00    +0.263 A 
ATOM     10  O   UNL     1      -2.052   1.037  -1.554  0.00  0.00    -0.267 OA
ATOM     11  C   UNL     1       1.879  -0.317  -0.319  0.00  0.00    +0.082 A 
ENDROOT
BRANCH  11  12
ATOM     12  C   UNL     1       3.219   0.280  -0.245  0.00  0.00    +0.266 A 
ATOM     13  O   UNL     1       3.558   1.533  -0.595  0.00  0.00    -0.332 OA
ATOM     14  N   UNL     1       4.743   1.706  -0.408  0.00  0.00    -0.056 NA
ATOM     15  C   UNL     1       5.296   0.617   0.062  0.00  0.00    +0.202 A 
ATOM     16  N   UNL     1       4.326  -0.313   0.173  0.00  0.00    -0.187 NA
BRANCH  15  17
ATOM     17  C   UNL     1       6.729   0.438   0.409  0.00  0.00    +0.025 A 
ATOM     18  C   UNL     1       7.199  -0.779   0.910  0.00  0.00    +0.031 A 
ATOM     19  C   UNL     1       8.539  -0.904   1.214  0.00  0.00    +0.111 A 
ATOM     20  N   UNL     1       9.369   0.107   1.048  0.00  0.00    -0.263 NA
ATOM     21  C   UNL     1       8.964   1.273   0.584  0.00  0.00    +0.111 A 
ATOM     22  C   UNL     1       7.642   1.483   0.249  0.00  0.00    +0.031 A 
ENDBRANCH  15  17
ENDBRANCH  11  12
BRANCH   7  23
ATOM     23  C   UNL     1      -4.183  -0.617  -1.438  0.00  0.00    +0.221 C 
BRANCH  23  24
ATOM     24  C   UNL     1      -4.915  -0.051  -0.248  0.00  0.00    +0.233 C 
ATOM     25  N   UNL     1      -6.190   0.366  -0.377  0.00  0.00    -0.311 N 
ATOM     26  H   UNL     1      -6.636   0.302  -1.236  0.00  0.00    +0.149 HD
ATOM     27  O   UNL     1      -4.356   0.030   0.825  0.00  0.00    -0.274 OA
BRANCH  25  28
ATOM     28  C   UNL     1      -6.901   0.916   0.779  0.00  0.00    +0.073 C 
ATOM     29  C   UNL     1      -7.582  -0.220   1.570  0.00  0.00    +0.022 C 
ATOM     30  C   UNL     1      -8.922   0.396   2.043  0.00  0.00    +0.002 C 
ATOM     31  C   UNL     1      -9.347   1.261   0.830  0.00  0.00    +0.002 C 
ATOM     32  C   UNL     1      -8.024   1.858   0.308  0.00  0.00    +0.022 C 
ENDBRANCH  25  28
ENDBRANCH  23  24
ENDBRANCH   7  23
TORSDOF 5
