REMARK  Name = m222
REMARK  4 active torsions:
REMARK  status: ('A' for Active; 'I' for Inactive)
REMARK    1  A    between atoms: C_2  and  C_4
REMARK    2  A    between atoms: N_8  and  C_9
REMARK    3  A    between atoms: C_9  and  C_10
REMARK    4  A    between atoms: C_15  and  C_16
REMARK                            x       y       z     vdW  Elec       q    Type
REMARK                         _______ _______ _______ _____ _____    ______ ____
ROOT
ATOM      1  C   UNL     1      -0.713  -1.181  -0.195  0.00  0.00    +0.012 A 
ATOM      2  C   UNL     1      -2.111  -1.061  -0.080  0.00  0.00    +0.102 A 
ATOM      3  N   UNL     1      -2.627  -2.271  -0.127  0.00  0.00    -0.173 NA
ATOM      4  N   UNL     1      -1.577  -3.187  -0.263  0.00  0.00    -0.284 N 
ATOM      5  H   UNL     1      -1.666  -4.151  -0.319  0.00  0.00    +0.188 HD
ATOM      6  C   UNL     1      -0.418  -2.495  -0.302  0.00  0.00    +0.110 A 
ENDROOT
BRANCH   2   7
ATOM      7  C   UNL     1      -2.870   0.207   0.060  0.00  0.00    +0.073 A 
ATOM      8  C   UNL     1      -2.578   1.087   1.102  0.00  0.00    +0.135 A 
ATOM      9  F   UNL     1      -1.598   0.790   1.984  0.00  0.00    -0.205 F 
ATOM     10  C   UNL     1      -3.284   2.269   1.224  0.00  0.00    +0.039 A 
ATOM     11  C   UNL     1      -4.287   2.575   0.322  0.00  0.00    +0.006 A 
ATOM     12  C   UNL     1      -4.585   1.704  -0.711  0.00  0.00    +0.039 A 
ATOM     13  C   UNL     1      -3.882   0.522  -0.847  0.00  0.00    +0.135 A 
ATOM     14  F   UNL     1      -4.176  -0.328  -1.855  0.00  0.00    -0.205 F 
ENDBRANCH   2   7
BRANCH   1  15
ATOM     15  C   UNL     1       0.279  -0.046  -0.194  0.00  0.00    +0.123 C 
BRANCH  15  18
ATOM     16  C   UNL     1       3.997   0.049  -0.433  0.00  0.00    +0.089 C 
ATOM     17  C   UNL     1       2.547   0.537  -0.440  0.00  0.00    +0.097 C 
ATOM     18  N   UNL     1       1.644  -0.589  -0.180  0.00  0.00    -0.297 NA
ATOM     19  C   UNL     1       1.901  -1.048   1.190  0.00  0.00    +0.085 C 
ATOM     20  C   UNL     1       3.315  -1.623   1.286  0.00  0.00    +0.016 C 
ATOM     21  C   UNL     1       4.329  -0.526   0.947  0.00  0.00    +0.015 C 
BRANCH  16  25
ATOM     22  N   UNL     1       6.252   1.009  -0.773  0.00  0.00    -0.329 N 
ATOM     23  H   UNL     1       6.618   0.127  -0.606  0.00  0.00    +0.145 HD
ATOM     24  H   UNL     1       6.845   1.752  -0.966  0.00  0.00    +0.145 HD
ATOM     25  C   UNL     1       4.919   1.204  -0.732  0.00  0.00    +0.215 C 
ATOM     26  O   UNL     1       4.460   2.308  -0.936  0.00  0.00    -0.276 OA
ENDBRANCH  16  25
ENDBRANCH  15  18
ENDBRANCH   1  15
TORSDOF 4
