REMARK  Name = m223
REMARK  6 active torsions:
REMARK  status: ('A' for Active; 'I' for Inactive)
REMARK    1  A    between atoms: C_2  and  C_3
REMARK    2  A    between atoms: C_3  and  O_4
REMARK    3  A    between atoms: O_4  and  C_5
REMARK    4  A    between atoms: C_9  and  C_10
REMARK    5  A    between atoms: C_17  and  C_18
REMARK    6  A    between atoms: C_27  and  C_28
REMARK                            x       y       z     vdW  Elec       q    Type
REMARK                         _______ _______ _______ _____ _____    ______ ____
ROOT
ATOM      1  C   UNL     1      -1.438  -1.058   0.487  0.00  0.00    +0.063 C 
ATOM      2  C   UNL     1      -0.382   0.013   0.379  0.00  0.00    +0.023 A 
ATOM      3  C   UNL     1      -0.520   1.393   0.356  0.00  0.00    +0.066 A 
ATOM      4  N   UNL     1       0.675   1.926   0.260  0.00  0.00    -0.168 NA
ATOM      5  N   UNL     1       1.623   0.890   0.218  0.00  0.00    -0.198 N 
ATOM      6  C   UNL     1       3.009   1.042   0.123  0.00  0.00    +0.176 A 
ATOM      7  N   UNL     1       3.777  -0.021   0.100  0.00  0.00    -0.144 NA
ATOM      8  N   UNL     1       5.164   0.109   0.001  0.00  0.00    -0.195 N 
ATOM      9  C   UNL     1       5.736   1.356  -0.063  0.00  0.00    +0.178 A 
ATOM     10  N   UNL     1       7.044   1.174  -0.145  0.00  0.00    -0.128 NA
ATOM     11  N   UNL     1       7.299  -0.088  -0.136  0.00  0.00    -0.132 NA
ATOM     12  C   UNL     1       4.910   2.496  -0.032  0.00  0.00    +0.054 A 
ATOM     13  C   UNL     1       6.186  -0.773  -0.049  0.00  0.00    +0.152 A 
ATOM     14  C   UNL     1       6.067  -2.275  -0.009  0.00  0.00    +0.090 C 
ATOM     15  C   UNL     1       3.563   2.334   0.060  0.00  0.00    +0.054 A 
ATOM     16  C   UNL     1      -1.821   2.152   0.430  0.00  0.00    +0.068 C 
ATOM     17  C   UNL     1       0.952  -0.280   0.286  0.00  0.00    +0.134 A 
ATOM     18  N   UNL     1       1.420  -1.593   0.271  0.00  0.00    -0.270 N 
ATOM     19  H   UNL     1       2.367  -1.787   0.351  0.00  0.00    +0.156 HD
ATOM     20  C   UNL     1       0.516  -2.587   0.140  0.00  0.00    +0.219 C 
ATOM     21  O   UNL     1       0.874  -3.733   0.312  0.00  0.00    -0.275 OA
ATOM     22  C   UNL     1      -0.920  -2.318  -0.213  0.00  0.00    +0.109 C 
ENDROOT
BRANCH   1  25
ATOM     23  C   UNL     1      -5.045  -0.080  -0.067  0.00  0.00    +0.122 A 
ATOM     24  C   UNL     1      -3.877  -0.503   0.549  0.00  0.00    +0.050 A 
ATOM     25  C   UNL     1      -2.706  -0.591  -0.179  0.00  0.00    -0.036 A 
ATOM     26  C   UNL     1      -2.695  -0.245  -1.518  0.00  0.00    +0.004 A 
ATOM     27  C   UNL     1      -3.857   0.184  -2.133  0.00  0.00    +0.004 A 
ATOM     28  C   UNL     1      -5.032   0.267  -1.411  0.00  0.00    +0.046 A 
BRANCH  23  29
ATOM     29  O   UNL     1      -6.199   0.001   0.645  0.00  0.00    -0.480 OA
BRANCH  29  30
ATOM     30  C   UNL     1      -7.208   0.468  -0.254  0.00  0.00    +0.317 C 
BRANCH  30  32
ATOM     31  C   UNL     1      -9.512   0.665   1.031  0.00  0.00    +0.007 C 
ATOM     32  C   UNL     1      -8.490   0.577   0.461  0.00  0.00    -0.065 C 
ENDBRANCH  30  32
ENDBRANCH  29  30
ENDBRANCH  23  29
ENDBRANCH   1  25
TORSDOF 4
