REMARK  Name = m224
REMARK  6 active torsions:
REMARK  status: ('A' for Active; 'I' for Inactive)
REMARK    1  A    between atoms: C_1  and  C_2
REMARK    2  A    between atoms: C_2  and  O_3
REMARK    3  A    between atoms: O_3  and  C_4
REMARK    4  A    between atoms: C_9  and  C_10
REMARK    5  A    between atoms: C_17  and  C_18
REMARK    6  A    between atoms: C_27  and  C_28
REMARK                            x       y       z     vdW  Elec       q    Type
REMARK                         _______ _______ _______ _____ _____    ______ ____
ROOT
ATOM      1  C   UNL     1       2.028  -0.764   0.006  0.00  0.00    +0.066 C 
ATOM      2  C   UNL     1       0.890   0.218  -0.116  0.00  0.00    +0.023 A 
ATOM      3  C   UNL     1       0.921   1.593  -0.298  0.00  0.00    +0.066 A 
ATOM      4  N   UNL     1      -0.315   2.030  -0.357  0.00  0.00    -0.168 NA
ATOM      5  N   UNL     1      -1.182   0.934  -0.213  0.00  0.00    -0.198 N 
ATOM      6  C   UNL     1      -2.579   0.980  -0.227  0.00  0.00    +0.176 A 
ATOM      7  N   UNL     1      -3.265  -0.130  -0.086  0.00  0.00    -0.144 NA
ATOM      8  N   UNL     1      -4.661  -0.106  -0.092  0.00  0.00    -0.195 N 
ATOM      9  C   UNL     1      -5.328   1.083  -0.256  0.00  0.00    +0.178 A 
ATOM     10  N   UNL     1      -6.621   0.805  -0.226  0.00  0.00    -0.128 NA
ATOM     11  N   UNL     1      -6.779  -0.462  -0.055  0.00  0.00    -0.132 NA
ATOM     12  C   UNL     1      -4.591   2.272  -0.412  0.00  0.00    +0.054 A 
ATOM     13  C   UNL     1      -5.614  -1.055   0.031  0.00  0.00    +0.152 A 
ATOM     14  C   UNL     1      -5.380  -2.530   0.231  0.00  0.00    +0.090 C 
ATOM     15  C   UNL     1      -3.232   2.215  -0.397  0.00  0.00    +0.054 A 
ATOM     16  C   UNL     1       2.163   2.440  -0.409  0.00  0.00    +0.068 C 
ATOM     17  C   UNL     1      -0.422  -0.171  -0.060  0.00  0.00    +0.134 A 
ATOM     18  N   UNL     1      -0.789  -1.503   0.130  0.00  0.00    -0.270 N 
ATOM     19  H   UNL     1      -1.710  -1.786   0.023  0.00  0.00    +0.156 HD
ATOM     20  C   UNL     1       0.175  -2.385   0.467  0.00  0.00    +0.219 C 
ATOM     21  O   UNL     1      -0.082  -3.571   0.452  0.00  0.00    -0.275 OA
ATOM     22  C   UNL     1       1.557  -1.945   0.860  0.00  0.00    +0.109 C 
ENDROOT
BRANCH   1  24
ATOM     23  C   UNL     1       4.427  -0.033   0.013  0.00  0.00    +0.124 A 
ATOM     24  C   UNL     1       3.205  -0.096   0.668  0.00  0.00    +0.002 A 
ATOM     25  C   UNL     1       3.073   0.444   1.933  0.00  0.00    +0.008 A 
ATOM     26  C   UNL     1       4.153   1.057   2.541  0.00  0.00    +0.001 A 
ATOM     27  C   UNL     1       5.370   1.125   1.888  0.00  0.00    +0.004 A 
ATOM     28  C   UNL     1       5.509   0.582   0.625  0.00  0.00    +0.046 A 
BRANCH  23  29
ATOM     29  O   UNL     1       4.561  -0.569  -1.229  0.00  0.00    -0.492 OA
BRANCH  29  31
ATOM     30  C   UNL     1       6.133  -0.925  -3.030  0.00  0.00    +0.048 C 
ATOM     31  C   UNL     1       5.914  -0.343  -1.632  0.00  0.00    +0.225 C 
ENDBRANCH  29  31
ENDBRANCH  23  29
ENDBRANCH   1  24
TORSDOF 3
