REMARK  Name = m225
REMARK  7 active torsions:
REMARK  status: ('A' for Active; 'I' for Inactive)
REMARK    1  A    between atoms: C_1  and  C_2
REMARK    2  A    between atoms: C_2  and  C_3
REMARK    3  A    between atoms: C_3  and  O_4
REMARK    4  A    between atoms: O_4  and  C_5
REMARK    5  A    between atoms: C_9  and  C_10
REMARK    6  A    between atoms: C_17  and  C_18
REMARK    7  A    between atoms: C_27  and  C_28
REMARK                            x       y       z     vdW  Elec       q    Type
REMARK                         _______ _______ _______ _____ _____    ______ ____
ROOT
ATOM      1  C   UNL     1       1.323   1.103   0.541  0.00  0.00    +0.063 C 
ATOM      2  C   UNL     1       0.281   0.019   0.430  0.00  0.00    +0.023 A 
ATOM      3  C   UNL     1       0.434  -1.360   0.435  0.00  0.00    +0.066 A 
ATOM      4  N   UNL     1      -0.755  -1.907   0.324  0.00  0.00    -0.168 NA
ATOM      5  N   UNL     1      -1.711  -0.882   0.245  0.00  0.00    -0.198 N 
ATOM      6  C   UNL     1      -3.094  -1.051   0.125  0.00  0.00    +0.176 A 
ATOM      7  N   UNL     1      -3.872   0.004   0.067  0.00  0.00    -0.144 NA
ATOM      8  N   UNL     1      -5.255  -0.142  -0.059  0.00  0.00    -0.195 N 
ATOM      9  C   UNL     1      -5.813  -1.397  -0.111  0.00  0.00    +0.178 A 
ATOM     10  N   UNL     1      -7.121  -1.230  -0.224  0.00  0.00    -0.128 NA
ATOM     11  N   UNL     1      -7.389   0.029  -0.242  0.00  0.00    -0.132 NA
ATOM     12  C   UNL     1      -4.976  -2.527  -0.043  0.00  0.00    +0.054 A 
ATOM     13  C   UNL     1      -6.285   0.728  -0.145  0.00  0.00    +0.152 A 
ATOM     14  C   UNL     1      -6.182   2.231  -0.130  0.00  0.00    +0.090 C 
ATOM     15  C   UNL     1      -3.633  -2.350   0.074  0.00  0.00    +0.054 A 
ATOM     16  C   UNL     1       1.740  -2.103   0.549  0.00  0.00    +0.068 C 
ATOM     17  C   UNL     1      -1.055   0.296   0.305  0.00  0.00    +0.134 A 
ATOM     18  N   UNL     1      -1.535   1.604   0.257  0.00  0.00    -0.270 N 
ATOM     19  H   UNL     1      -2.485   1.789   0.314  0.00  0.00    +0.156 HD
ATOM     20  C   UNL     1      -0.639   2.605   0.126  0.00  0.00    +0.219 C 
ATOM     21  O   UNL     1      -1.012   3.750   0.270  0.00  0.00    -0.275 OA
ATOM     22  C   UNL     1       0.806   2.345  -0.193  0.00  0.00    +0.109 C 
ENDROOT
BRANCH   1  25
ATOM     23  C   UNL     1       4.950   0.153   0.077  0.00  0.00    +0.121 A 
ATOM     24  C   UNL     1       3.765   0.575   0.662  0.00  0.00    +0.050 A 
ATOM     25  C   UNL     1       2.609   0.637  -0.091  0.00  0.00    -0.036 A 
ATOM     26  C   UNL     1       2.629   0.267  -1.423  0.00  0.00    +0.004 A 
ATOM     27  C   UNL     1       3.808  -0.160  -2.007  0.00  0.00    +0.004 A 
ATOM     28  C   UNL     1       4.968  -0.218  -1.260  0.00  0.00    +0.045 A 
BRANCH  23  29
ATOM     29  O   UNL     1       6.091   0.097   0.815  0.00  0.00    -0.492 OA
BRANCH  29  30
ATOM     30  C   UNL     1       7.122  -0.375  -0.055  0.00  0.00    +0.229 C 
BRANCH  30  32
ATOM     31  C   UNL     1       9.544  -0.967  -0.214  0.00  0.00    +0.007 C 
ATOM     32  C   UNL     1       8.440  -0.461   0.717  0.00  0.00    +0.038 C 
ENDBRANCH  30  32
ENDBRANCH  29  30
ENDBRANCH  23  29
ENDBRANCH   1  25
TORSDOF 4
