REMARK  Name = m226
REMARK  6 active torsions:
REMARK  status: ('A' for Active; 'I' for Inactive)
REMARK    1  A    between atoms: C_1  and  C_2
REMARK    2  A    between atoms: C_2  and  O_3
REMARK    3  A    between atoms: O_3  and  C_4
REMARK    4  A    between atoms: C_8  and  C_9
REMARK    5  A    between atoms: C_16  and  C_17
REMARK    6  A    between atoms: C_26  and  C_27
REMARK                            x       y       z     vdW  Elec       q    Type
REMARK                         _______ _______ _______ _____ _____    ______ ____
ROOT
ATOM      1  C   UNL     1       1.681  -1.031  -0.529  0.00  0.00    +0.063 C 
ATOM      2  C   UNL     1       0.617   0.031  -0.417  0.00  0.00    +0.023 A 
ATOM      3  C   UNL     1       0.742   1.413  -0.413  0.00  0.00    +0.066 A 
ATOM      4  N   UNL     1      -0.458   1.935  -0.305  0.00  0.00    -0.168 NA
ATOM      5  N   UNL     1      -1.394   0.890  -0.237  0.00  0.00    -0.198 N 
ATOM      6  C   UNL     1      -2.780   1.030  -0.123  0.00  0.00    +0.176 A 
ATOM      7  N   UNL     1      -3.537  -0.040  -0.075  0.00  0.00    -0.144 NA
ATOM      8  N   UNL     1      -4.923   0.078   0.044  0.00  0.00    -0.195 N 
ATOM      9  C   UNL     1      -5.507   1.320   0.101  0.00  0.00    +0.178 A 
ATOM     10  N   UNL     1      -6.811   1.127   0.206  0.00  0.00    -0.128 NA
ATOM     11  N   UNL     1      -7.054  -0.138   0.216  0.00  0.00    -0.132 NA
ATOM     12  C   UNL     1      -4.693   2.467   0.044  0.00  0.00    +0.054 A 
ATOM     13  C   UNL     1      -5.936  -0.813   0.120  0.00  0.00    +0.152 A 
ATOM     14  C   UNL     1      -5.803  -2.314   0.097  0.00  0.00    +0.090 C 
ATOM     15  C   UNL     1      -3.346   2.318  -0.067  0.00  0.00    +0.054 A 
ATOM     16  C   UNL     1       2.034   2.182  -0.516  0.00  0.00    +0.068 C 
ATOM     17  C   UNL     1      -0.713  -0.274  -0.301  0.00  0.00    +0.134 A 
ATOM     18  N   UNL     1      -1.167  -1.591  -0.262  0.00  0.00    -0.270 N 
ATOM     19  H   UNL     1      -2.113  -1.795  -0.326  0.00  0.00    +0.156 HD
ATOM     20  C   UNL     1      -0.252  -2.575  -0.133  0.00  0.00    +0.219 C 
ATOM     21  O   UNL     1      -0.601  -3.726  -0.285  0.00  0.00    -0.275 OA
ATOM     22  C   UNL     1       1.186  -2.287   0.195  0.00  0.00    +0.109 C 
ENDROOT
BRANCH   1  25
ATOM     23  C   UNL     1       5.287  -0.011  -0.041  0.00  0.00    +0.121 A 
ATOM     24  C   UNL     1       4.113  -0.454  -0.634  0.00  0.00    +0.050 A 
ATOM     25  C   UNL     1       2.954  -0.544   0.113  0.00  0.00    -0.036 A 
ATOM     26  C   UNL     1       2.961  -0.181   1.447  0.00  0.00    +0.004 A 
ATOM     27  C   UNL     1       4.128   0.266   2.039  0.00  0.00    +0.004 A 
ATOM     28  C   UNL     1       5.290   0.352   1.298  0.00  0.00    +0.045 A 
BRANCH  23  29
ATOM     29  O   UNL     1       6.429   0.072  -0.772  0.00  0.00    -0.492 OA
BRANCH  29  31
ATOM     30  C   UNL     1       8.766   0.677  -0.659  0.00  0.00    +0.048 C 
ATOM     31  C   UNL     1       7.446   0.559   0.106  0.00  0.00    +0.225 C 
ENDBRANCH  29  31
ENDBRANCH  23  29
ENDBRANCH   1  25
TORSDOF 3
