REMARK  Name = m227
REMARK  7 active torsions:
REMARK  status: ('A' for Active; 'I' for Inactive)
REMARK    1  A    between atoms: C_1  and  C_2
REMARK    2  A    between atoms: C_2  and  N_3
REMARK    3  A    between atoms: C_7  and  C_8
REMARK    4  A    between atoms: C_8  and  N_9
REMARK    5  A    between atoms: N_9  and  C_10
REMARK    6  A    between atoms: C_10  and  C_11
REMARK    7  A    between atoms: C_16  and  C_17
REMARK                            x       y       z     vdW  Elec       q    Type
REMARK                         _______ _______ _______ _____ _____    ______ ____
ROOT
ATOM      1  C   UNL     1       0.024   2.046  -0.689  0.00  0.00    +0.011 A 
ATOM      2  C   UNL     1       1.235   1.908   0.017  0.00  0.00    +0.097 A 
ATOM      3  N   UNL     1       1.524   3.074   0.556  0.00  0.00    -0.174 NA
ATOM      4  N   UNL     1       0.505   3.974   0.218  0.00  0.00    -0.284 N 
ATOM      5  H   UNL     1       0.458   4.906   0.485  0.00  0.00    +0.188 HD
ATOM      6  C   UNL     1      -0.398   3.321  -0.543  0.00  0.00    +0.110 A 
ENDROOT
BRANCH   2   7
ATOM      7  C   UNL     1       2.047   0.671   0.125  0.00  0.00    +0.006 A 
ATOM      8  C   UNL     1       3.434   0.734   0.005  0.00  0.00    +0.059 A 
ATOM      9  C   UNL     1       4.189  -0.421   0.113  0.00  0.00    +0.167 A 
ATOM     10  O   UNL     1       5.536  -0.629   0.040  0.00  0.00    -0.453 OA
ATOM     11  C   UNL     1       5.694  -2.040  -0.196  0.00  0.00    +0.466 C 
ATOM     12  O   UNL     1       4.514  -2.620   0.391  0.00  0.00    -0.453 OA
ATOM     13  C   UNL     1       3.560  -1.646   0.329  0.00  0.00    +0.166 A 
ATOM     14  C   UNL     1       2.179  -1.706   0.442  0.00  0.00    +0.050 A 
ATOM     15  C   UNL     1       1.423  -0.556   0.341  0.00  0.00    +0.014 A 
ENDBRANCH   2   7
BRANCH   1  16
ATOM     16  C   UNL     1      -0.679   0.962  -1.464  0.00  0.00    +0.120 C 
BRANCH  16  17
ATOM     17  N   UNL     1      -1.502   0.160  -0.549  0.00  0.00    -0.305 NA
ATOM     18  H   UNL     1      -1.081   0.240   0.365  0.00  0.00    +0.123 HD
BRANCH  17  19
ATOM     19  C   UNL     1      -2.812   0.820  -0.470  0.00  0.00    +0.158 C 
BRANCH  19  21
ATOM     20  N   UNL     1      -4.514  -1.047  -0.092  0.00  0.00    -0.317 N 
ATOM     21  C   UNL     1      -3.750  -0.022   0.356  0.00  0.00    +0.147 A 
ATOM     22  N   UNL     1      -3.984   0.108   1.634  0.00  0.00    -0.133 NA
ATOM     23  N   UNL     1      -4.837  -0.778   2.009  0.00  0.00    -0.138 NA
ATOM     24  C   UNL     1      -5.191  -1.509   0.987  0.00  0.00    +0.225 A 
BRANCH  20  26
ATOM     25  C   UNL     1      -3.446  -2.547  -1.701  0.00  0.00    +0.027 C 
ATOM     26  C   UNL     1      -4.588  -1.558  -1.463  0.00  0.00    +0.121 C 
ENDBRANCH  20  26
ENDBRANCH  19  21
ENDBRANCH  17  19
ENDBRANCH  16  17
ENDBRANCH   1  16
TORSDOF 6
