REMARK  Name = m228
REMARK  7 active torsions:
REMARK  status: ('A' for Active; 'I' for Inactive)
REMARK    1  A    between atoms: C_1  and  O_2
REMARK    2  A    between atoms: O_2  and  C_3
REMARK    3  A    between atoms: C_6  and  O_7
REMARK    4  A    between atoms: O_7  and  C_8
REMARK    5  A    between atoms: C_9  and  N_10
REMARK    6  A    between atoms: C_11  and  C_13
REMARK    7  A    between atoms: C_13  and  N_14
REMARK                            x       y       z     vdW  Elec       q    Type
REMARK                         _______ _______ _______ _____ _____    ______ ____
ROOT
ATOM      1  N   UNL     1      -0.256   0.643  -1.293  0.00  0.00    -0.203 N 
ATOM      2  C   UNL     1      -0.779   1.836  -0.939  0.00  0.00    +0.352 A 
ATOM      3  O   UNL     1      -0.280   2.928  -1.146  0.00  0.00    -0.244 OA
ATOM      4  N   UNL     1      -1.950   1.603  -0.320  0.00  0.00    -0.239 N 
ATOM      5  C   UNL     1      -2.156   0.233  -0.280  0.00  0.00    +0.203 A 
ATOM      6  C   UNL     1      -3.377  -0.283   0.357  0.00  0.00    +0.167 A 
ATOM      7  N   UNL     1      -4.247   0.549   0.875  0.00  0.00    -0.227 NA
ATOM      8  C   UNL     1      -4.053   1.895   0.841  0.00  0.00    +0.090 A 
ATOM      9  C   UNL     1      -5.008   2.749   1.407  0.00  0.00    +0.030 A 
ATOM     10  C   UNL     1      -4.816   4.112   1.374  0.00  0.00    +0.002 A 
ATOM     11  C   UNL     1      -3.683   4.648   0.784  0.00  0.00    +0.002 A 
ATOM     12  C   UNL     1      -2.732   3.819   0.222  0.00  0.00    +0.028 A 
ATOM     13  N   UNL     1      -3.606  -1.643   0.410  0.00  0.00    -0.311 N 
ATOM     14  C   UNL     1      -2.577  -2.573  -0.060  0.00  0.00    +0.117 C 
ATOM     15  C   UNL     1      -3.104  -3.369  -1.251  0.00  0.00    +0.088 C 
ATOM     16  S   UNL     1      -4.590  -4.283  -0.749  0.00  0.00    -0.158 S 
ATOM     17  C   UNL     1      -5.620  -2.903  -0.175  0.00  0.00    +0.088 C 
ATOM     18  C   UNL     1      -4.878  -2.147   0.930  0.00  0.00    +0.117 C 
ATOM     19  C   UNL     1      -2.908   2.443   0.246  0.00  0.00    +0.078 A 
ATOM     20  N   UNL     1      -1.145  -0.352  -0.862  0.00  0.00    -0.145 NA
ENDROOT
BRANCH   1  21
ATOM     21  C   UNL     1       1.012   0.427  -1.994  0.00  0.00    +0.244 C 
BRANCH  21  24
ATOM     22  N   UNL     1       3.389   0.081  -1.406  0.00  0.00    -0.281 N 
ATOM     23  H   UNL     1       3.597   0.107  -2.353  0.00  0.00    +0.155 HD
ATOM     24  C   UNL     1       2.125   0.287  -0.988  0.00  0.00    +0.239 C 
ATOM     25  O   UNL     1       1.882   0.360   0.198  0.00  0.00    -0.273 OA
BRANCH  22  28
ATOM     26  C   UNL     1       5.093  -0.957   1.689  0.00  0.00    +0.122 A 
ATOM     27  C   UNL     1       4.088  -0.712   0.766  0.00  0.00    +0.072 A 
ATOM     28  C   UNL     1       4.403  -0.173  -0.473  0.00  0.00    +0.079 A 
ATOM     29  C   UNL     1       5.729   0.110  -0.789  0.00  0.00    +0.141 A 
ATOM     30  C   UNL     1       6.730  -0.142   0.135  0.00  0.00    +0.051 A 
ATOM     31  C   UNL     1       6.413  -0.674   1.371  0.00  0.00    +0.049 A 
BRANCH  26  33
ATOM     32  C   UNL     1       6.015  -1.622   3.619  0.00  0.00    +0.277 C 
ATOM     33  O   UNL     1       4.784  -1.481   2.906  0.00  0.00    -0.495 OA
ENDBRANCH  26  33
BRANCH  29  34
ATOM     34  O   UNL     1       6.042   0.633  -2.006  0.00  0.00    -0.493 OA
ATOM     35  C   UNL     1       7.460   0.808  -2.027  0.00  0.00    +0.277 C 
ENDBRANCH  29  34
ENDBRANCH  22  28
ENDBRANCH  21  24
ENDBRANCH   1  21
TORSDOF 5
