REMARK  Name = m229
REMARK  10 active torsions:
REMARK  status: ('A' for Active; 'I' for Inactive)
REMARK    1  A    between atoms: C_1  and  C_2
REMARK    2  A    between atoms: C_2  and  O_3
REMARK    3  A    between atoms: O_3  and  C_4
REMARK    4  A    between atoms: C_4  and  C_6
REMARK    5  A    between atoms: C_7  and  S_8
REMARK    6  A    between atoms: S_8  and  N_11
REMARK    7  A    between atoms: C_15  and  C_16
REMARK    8  A    between atoms: C_26  and  C_27
REMARK    9  A    between atoms: N_28  and  C_29
REMARK   10  A    between atoms: C_30  and  C_31
REMARK                            x       y       z     vdW  Elec       q    Type
REMARK                         _______ _______ _______ _____ _____    ______ ____
ROOT
ATOM      1  S   UNL     1      -2.430   1.130   1.367  0.00  0.00    +0.063 S 
ATOM      2  O   UNL     1      -2.023   0.292   2.439  0.00  0.00    -0.153 OA
ATOM      3  O   UNL     1      -3.419   2.148   1.447  0.00  0.00    -0.153 OA
ENDROOT
BRANCH   1  11
ATOM      4  C   UNL     1      -2.580  -1.361  -0.092  0.00  0.00    +0.106 A 
ATOM      5  C   UNL     1      -3.238  -1.793  -1.224  0.00  0.00    +0.031 A 
ATOM      6  C   UNL     1      -3.162  -3.176  -1.817  0.00  0.00    +0.064 C 
ATOM      7  N   UNL     1      -3.967  -0.767  -1.704  0.00  0.00    -0.349 N 
ATOM      8  C   UNL     1      -4.812  -0.829  -2.899  0.00  0.00    +0.149 C 
ATOM      9  C   UNL     1      -3.803   0.339  -0.922  0.00  0.00    +0.043 A 
ATOM     10  C   UNL     1      -4.457   1.677  -1.153  0.00  0.00    +0.065 C 
ATOM     11  C   UNL     1      -2.964   0.044   0.086  0.00  0.00    +0.140 A 
BRANCH   4  12
ATOM     12  C   UNL     1      -1.675  -2.147   0.760  0.00  0.00    +0.343 C 
ATOM     13  O   UNL     1      -2.117  -2.769   1.706  0.00  0.00    -0.245 OA
BRANCH  12  14
ATOM     14  O   UNL     1      -0.354  -2.176   0.492  0.00  0.00    -0.461 OA
BRANCH  14  16
ATOM     15  C   UNL     1       1.974  -2.816   0.815  0.00  0.00    +0.048 C 
ATOM     16  C   UNL     1       0.540  -2.952   1.333  0.00  0.00    +0.229 C 
ENDBRANCH  14  16
ENDBRANCH  12  14
ENDBRANCH   4  12
ENDBRANCH   1  11
BRANCH   1  17
ATOM     17  N   UNL     1      -1.053   1.882   0.837  0.00  0.00    -0.176 NA
ATOM     18  C   UNL     1       0.268   1.296   1.099  0.00  0.00    +0.122 C 
ATOM     19  C   UNL     1       1.019   1.166  -0.235  0.00  0.00    +0.091 C 
ATOM     20  C   UNL     1       1.063   2.532  -0.924  0.00  0.00    +0.015 C 
ATOM     21  C   UNL     1      -0.363   3.003  -1.218  0.00  0.00    +0.018 C 
ATOM     22  C   UNL     1      -1.129   3.151   0.100  0.00  0.00    +0.109 C 
BRANCH  19  23
ATOM     23  C   UNL     1       2.424   0.688   0.025  0.00  0.00    +0.223 C 
ATOM     24  N   UNL     1       3.275   0.505  -1.005  0.00  0.00    -0.270 N 
ATOM     25  H   UNL     1       2.962   0.608  -1.917  0.00  0.00    +0.156 HD
ATOM     26  C   UNL     1       4.605   0.169  -0.758  0.00  0.00    +0.125 A 
ATOM     27  N   UNL     1       5.003  -0.065   0.482  0.00  0.00    -0.240 NA
ATOM     28  C   UNL     1       6.251  -0.392   0.759  0.00  0.00    +0.113 A 
ATOM     29  C   UNL     1       7.196  -0.490  -0.244  0.00  0.00    +0.020 A 
ATOM     30  C   UNL     1       6.820  -0.247  -1.558  0.00  0.00    +0.005 A 
ATOM     31  C   UNL     1       5.503   0.088  -1.817  0.00  0.00    +0.044 A 
ATOM     32  O   UNL     1       2.789   0.467   1.160  0.00  0.00    -0.275 OA
ENDBRANCH  19  23
ENDBRANCH   1  17
TORSDOF 6
