REMARK  Name = m230
REMARK  7 active torsions:
REMARK  status: ('A' for Active; 'I' for Inactive)
REMARK    1  A    between atoms: C_1  and  C_2
REMARK    2  A    between atoms: C_2  and  C_3
REMARK    3  A    between atoms: C_2  and  N_4
REMARK    4  A    between atoms: C_5  and  C_7
REMARK    5  A    between atoms: C_15  and  C_16
REMARK    6  A    between atoms: N_18  and  S_19
REMARK    7  A    between atoms: S_19  and  N_22
REMARK                            x       y       z     vdW  Elec       q    Type
REMARK                         _______ _______ _______ _____ _____    ______ ____
ROOT
ATOM      1  C   UNL     1       2.337   0.538   0.102  0.00  0.00    +0.082 A 
ATOM      2  C   UNL     1       1.831  -0.668  -0.269  0.00  0.00    +0.011 A 
ATOM      3  C   UNL     1       2.534  -1.846   0.036  0.00  0.00    +0.014 A 
ATOM      4  C   UNL     1       3.750  -1.667   0.740  0.00  0.00    +0.109 A 
ATOM      5  N   UNL     1       4.515  -2.672   1.100  0.00  0.00    -0.248 NA
ATOM      6  C   UNL     1       4.185  -3.918   0.819  0.00  0.00    +0.112 A 
ATOM      7  C   UNL     1       3.012  -4.196   0.131  0.00  0.00    +0.020 A 
ATOM      8  C   UNL     1       2.183  -3.188  -0.265  0.00  0.00    +0.012 A 
ATOM      9  S   UNL     1       3.854   0.096   0.931  0.00  0.00    -0.064 S 
ENDROOT
BRANCH   2  10
ATOM     10  C   UNL     1       0.522  -0.741  -1.012  0.00  0.00    +0.166 C 
ATOM     11  O   UNL     1       0.505   0.246  -2.043  0.00  0.00    -0.369 OA
ATOM     12  C   UNL     1      -0.649   0.012  -2.849  0.00  0.00    +0.178 C 
ATOM     13  C   UNL     1      -1.913   0.336  -2.044  0.00  0.00    +0.138 C 
ATOM     14  N   UNL     1      -1.888  -0.467  -0.809  0.00  0.00    -0.161 NA
ATOM     15  C   UNL     1      -0.633  -0.487  -0.038  0.00  0.00    +0.147 C 
BRANCH  14  16
ATOM     16  S   UNL     1      -3.220  -1.312  -0.306  0.00  0.00    +0.100 S 
ATOM     17  O   UNL     1      -2.728  -2.340   0.543  0.00  0.00    -0.141 OA
ATOM     18  O   UNL     1      -4.011  -1.515  -1.470  0.00  0.00    -0.141 OA
BRANCH  16  19
ATOM     19  N   UNL     1      -4.105  -0.308   0.669  0.00  0.00    -0.166 NA
ATOM     20  C   UNL     1      -3.959  -0.183   2.131  0.00  0.00    +0.110 C 
ATOM     21  C   UNL     1      -4.500   1.233   2.461  0.00  0.00    +0.018 C 
ATOM     22  C   UNL     1      -5.687   1.350   1.469  0.00  0.00    +0.018 C 
ATOM     23  C   UNL     1      -5.170   0.602   0.222  0.00  0.00    +0.110 C 
ENDBRANCH  16  19
ENDBRANCH  14  16
ENDBRANCH   2  10
BRANCH   1  26
ATOM     24  N   UNL     1       2.421   2.966   0.332  0.00  0.00    -0.309 N 
ATOM     25  H   UNL     1       3.263   2.868   0.802  0.00  0.00    +0.149 HD
ATOM     26  C   UNL     1       1.770   1.876  -0.120  0.00  0.00    +0.251 C 
ATOM     27  O   UNL     1       0.714   1.999  -0.710  0.00  0.00    -0.270 OA
BRANCH  24  29
ATOM     28  C   UNL     1       2.379   5.259   1.182  0.00  0.00    +0.027 C 
ATOM     29  C   UNL     1       1.856   4.300   0.111  0.00  0.00    +0.067 C 
ATOM     30  C   UNL     1       2.269   4.806  -1.273  0.00  0.00    +0.027 C 
ENDBRANCH  24  29
ENDBRANCH   1  26
TORSDOF 5
