REMARK  Name = m231
REMARK  6 active torsions:
REMARK  status: ('A' for Active; 'I' for Inactive)
REMARK    1  A    between atoms: C_1  and  N_2
REMARK    2  A    between atoms: C_3  and  C_5
REMARK    3  A    between atoms: C_13  and  C_14
REMARK    4  A    between atoms: N_16  and  S_17
REMARK    5  A    between atoms: S_17  and  C_20
REMARK    6  A    between atoms: N_23  and  C_24
REMARK                            x       y       z     vdW  Elec       q    Type
REMARK                         _______ _______ _______ _____ _____    ______ ____
ROOT
ATOM      1  C   UNL     1       0.975  -0.354  -1.059  0.00  0.00    +0.166 C 
ATOM      2  O   UNL     1       0.891   0.570  -2.143  0.00  0.00    -0.369 OA
ATOM      3  C   UNL     1      -0.151   0.127  -3.012  0.00  0.00    +0.178 C 
ATOM      4  C   UNL     1      -1.506   0.294  -2.316  0.00  0.00    +0.137 C 
ATOM      5  N   UNL     1      -1.458  -0.437  -1.038  0.00  0.00    -0.172 NA
ATOM      6  C   UNL     1      -0.277  -0.232  -0.182  0.00  0.00    +0.146 C 
ENDROOT
BRANCH   1   8
ATOM      7  C   UNL     1       2.491   1.234   0.102  0.00  0.00    +0.082 A 
ATOM      8  C   UNL     1       2.198  -0.050  -0.233  0.00  0.00    +0.011 A 
ATOM      9  C   UNL     1       3.041  -1.093   0.187  0.00  0.00    +0.014 A 
ATOM     10  C   UNL     1       4.160  -0.700   0.961  0.00  0.00    +0.109 A 
ATOM     11  N   UNL     1       5.035  -1.561   1.430  0.00  0.00    -0.248 NA
ATOM     12  C   UNL     1       4.914  -2.854   1.199  0.00  0.00    +0.112 A 
ATOM     13  C   UNL     1       3.850  -3.337   0.450  0.00  0.00    +0.020 A 
ATOM     14  C   UNL     1       2.915  -2.486  -0.059  0.00  0.00    +0.012 A 
ATOM     15  S   UNL     1       3.989   1.066   1.057  0.00  0.00    -0.064 S 
BRANCH   7  19
ATOM     16  C   UNL     1       1.464   4.877  -0.139  0.00  0.00    +0.128 C 
ATOM     17  N   UNL     1       2.200   3.656   0.196  0.00  0.00    -0.314 N 
ATOM     18  H   UNL     1       3.009   3.708   0.729  0.00  0.00    +0.149 HD
ATOM     19  C   UNL     1       1.753   2.459  -0.235  0.00  0.00    +0.251 C 
ATOM     20  O   UNL     1       0.738   2.394  -0.902  0.00  0.00    -0.270 OA
ENDBRANCH   7  19
ENDBRANCH   1   8
BRANCH   5  21
ATOM     21  S   UNL     1      -2.686  -1.449  -0.580  0.00  0.00    +0.064 S 
ATOM     22  O   UNL     1      -2.114  -2.350   0.359  0.00  0.00    -0.153 OA
ATOM     23  O   UNL     1      -3.347  -1.823  -1.781  0.00  0.00    -0.153 OA
BRANCH  21  24
ATOM     24  C   UNL     1      -3.851  -0.487   0.328  0.00  0.00    +0.143 A 
ATOM     25  C   UNL     1      -3.846  -0.286   1.666  0.00  0.00    +0.136 A 
ATOM     26  N   UNL     1      -4.896   0.506   1.967  0.00  0.00    -0.273 N 
ATOM     27  C   UNL     1      -5.266   0.977   3.304  0.00  0.00    +0.172 C 
ATOM     28  N   UNL     1      -5.574   0.793   0.775  0.00  0.00    -0.178 NA
ATOM     29  C   UNL     1      -4.947   0.198  -0.206  0.00  0.00    +0.162 A 
ENDBRANCH  21  24
ENDBRANCH   5  21
TORSDOF 4
