REMARK  Name = m232
REMARK  8 active torsions:
REMARK  status: ('A' for Active; 'I' for Inactive)
REMARK    1  A    between atoms: C_1  and  C_2
REMARK    2  A    between atoms: C_2  and  C_3
REMARK    3  A    between atoms: C_5  and  C_6
REMARK    4  A    between atoms: C_12  and  C_13
REMARK    5  A    between atoms: C_14  and  C_15
REMARK    6  A    between atoms: N_17  and  C_18
REMARK    7  A    between atoms: C_18  and  C_19
REMARK    8  A    between atoms: C_19  and  O_20
REMARK                            x       y       z     vdW  Elec       q    Type
REMARK                         _______ _______ _______ _____ _____    ______ ____
ROOT
ATOM      1  C   UNL     1      -1.928  -0.892   0.249  0.00  0.00    +0.011 A 
ATOM      2  C   UNL     1      -2.472  -2.186   0.169  0.00  0.00    +0.014 A 
ATOM      3  C   UNL     1      -3.829  -2.255  -0.233  0.00  0.00    +0.109 A 
ATOM      4  N   UNL     1      -4.476  -3.392  -0.350  0.00  0.00    -0.248 NA
ATOM      5  C   UNL     1      -3.888  -4.543  -0.090  0.00  0.00    +0.112 A 
ATOM      6  C   UNL     1      -2.562  -4.580   0.316  0.00  0.00    +0.020 A 
ATOM      7  S   UNL     1      -4.265  -0.551  -0.486  0.00  0.00    -0.064 S 
ATOM      8  C   UNL     1      -1.845  -3.427   0.454  0.00  0.00    +0.012 A 
ATOM      9  C   UNL     1      -2.696   0.185  -0.061  0.00  0.00    +0.082 A 
ENDROOT
BRANCH   1  13
ATOM     10  C   UNL     1       2.798  -0.636  -0.712  0.00  0.00    +0.285 C 
ATOM     11  N   UNL     1       1.731  -0.085  -0.099  0.00  0.00    -0.290 N 
ATOM     12  C   UNL     1       0.359  -0.358  -0.560  0.00  0.00    +0.144 C 
ATOM     13  C   UNL     1      -0.494  -0.701   0.671  0.00  0.00    +0.167 C 
ATOM     14  O   UNL     1      -0.415   0.364   1.617  0.00  0.00    -0.369 OA
ATOM     15  C   UNL     1       0.910   0.380   2.145  0.00  0.00    +0.179 C 
ATOM     16  C   UNL     1       1.893   0.818   1.054  0.00  0.00    +0.136 C 
ATOM     17  O   UNL     1       2.636  -1.468  -1.584  0.00  0.00    -0.267 OA
BRANCH  10  21
ATOM     18  C   UNL     1       6.329  -0.026  -0.090  0.00  0.00    +0.084 A 
ATOM     19  N   UNL     1       5.701   0.846   0.644  0.00  0.00    -0.082 NA
ATOM     20  O   UNL     1       4.502   0.757   0.526  0.00  0.00    -0.350 OA
ATOM     21  C   UNL     1       4.162  -0.229  -0.325  0.00  0.00    +0.222 A 
ATOM     22  C   UNL     1       5.338  -0.777  -0.759  0.00  0.00    +0.081 A 
BRANCH  18  24
ATOM     23  C   UNL     1       8.466   1.124  -0.600  0.00  0.00    +0.010 C 
ATOM     24  C   UNL     1       7.821  -0.204  -0.199  0.00  0.00    +0.055 C 
ENDBRANCH  18  24
ENDBRANCH  10  21
ENDBRANCH   1  13
BRANCH   9  25
ATOM     25  C   UNL     1      -2.325   1.608  -0.049  0.00  0.00    +0.251 C 
ATOM     26  N   UNL     1      -3.233   2.543  -0.391  0.00  0.00    -0.309 N 
ATOM     27  H   UNL     1      -4.131   2.278  -0.645  0.00  0.00    +0.149 HD
ATOM     28  O   UNL     1      -1.200   1.940   0.270  0.00  0.00    -0.270 OA
BRANCH  26  29
ATOM     29  C   UNL     1      -2.864   3.961  -0.379  0.00  0.00    +0.132 C 
BRANCH  29  30
ATOM     30  C   UNL     1      -4.067   4.805  -0.804  0.00  0.00    +0.174 C 
BRANCH  30  31
ATOM     31  O   UNL     1      -5.106   4.677   0.168  0.00  0.00    -0.393 OA
ATOM     32  H   UNL     1      -5.843   5.223  -0.137  0.00  0.00    +0.209 HD
ENDBRANCH  30  31
ENDBRANCH  29  30
ENDBRANCH  26  29
ENDBRANCH   9  25
TORSDOF 7
