REMARK  Name = m233
REMARK  11 active torsions:
REMARK  status: ('A' for Active; 'I' for Inactive)
REMARK    1  A    between atoms: C_1  and  O_2
REMARK    2  A    between atoms: O_2  and  C_3
REMARK    3  A    between atoms: C_9  and  N_10
REMARK    4  A    between atoms: C_11  and  C_13
REMARK    5  A    between atoms: C_13  and  S_14
REMARK    6  A    between atoms: S_14  and  C_15
REMARK    7  A    between atoms: C_25  and  C_26
REMARK    8  A    between atoms: C_26  and  C_27
REMARK    9  A    between atoms: C_27  and  C_28
REMARK   10  A    between atoms: C_29  and  C_30
REMARK   11  A    between atoms: C_34  and  C_35
REMARK                            x       y       z     vdW  Elec       q    Type
REMARK                         _______ _______ _______ _____ _____    ______ ____
ROOT
ATOM      1  C   UNL     1      -0.540   1.414   0.141  0.00  0.00    +0.192 A 
ATOM      2  N   UNL     1      -1.869   1.120   0.281  0.00  0.00    -0.188 N 
ATOM      3  C   UNL     1      -2.810   2.106   0.151  0.00  0.00    +0.168 A 
ATOM      4  N   UNL     1      -3.992   1.558   0.338  0.00  0.00    -0.211 NA
ATOM      5  C   UNL     1      -3.850   0.260   0.588  0.00  0.00    +0.152 A 
ATOM      6  C   UNL     1      -2.341   3.462  -0.150  0.00  0.00    +0.045 A 
ATOM      7  C   UNL     1      -0.948   3.668  -0.282  0.00  0.00    +0.077 A 
ATOM      8  C   UNL     1      -0.471   4.950  -0.569  0.00  0.00    +0.028 A 
ATOM      9  C   UNL     1      -1.358   5.991  -0.719  0.00  0.00    +0.002 A 
ATOM     10  C   UNL     1      -2.725   5.785  -0.588  0.00  0.00    +0.001 A 
ATOM     11  C   UNL     1      -3.220   4.531  -0.306  0.00  0.00    +0.014 A 
ATOM     12  N   UNL     1      -2.578  -0.054   0.567  0.00  0.00    -0.148 NA
ATOM     13  N   UNL     1      -0.105   2.619  -0.128  0.00  0.00    -0.222 NA
ENDROOT
BRANCH   1  14
ATOM     14  S   UNL     1       0.635   0.114   0.323  0.00  0.00    -0.077 S 
BRANCH  14  15
ATOM     15  C   UNL     1       2.168   1.034   0.039  0.00  0.00    +0.173 C 
BRANCH  15  18
ATOM     16  N   UNL     1       4.596   0.564  -0.026  0.00  0.00    -0.282 N 
ATOM     17  H   UNL     1       4.747   1.515  -0.139  0.00  0.00    +0.155 HD
ATOM     18  C   UNL     1       3.344   0.097   0.149  0.00  0.00    +0.228 C 
ATOM     19  O   UNL     1       3.163  -1.077   0.396  0.00  0.00    -0.275 OA
BRANCH  16  21
ATOM     20  C   UNL     1       6.957   0.124   0.280  0.00  0.00    +0.141 A 
ATOM     21  C   UNL     1       5.679  -0.325  -0.045  0.00  0.00    +0.077 A 
ATOM     22  C   UNL     1       5.482  -1.653  -0.396  0.00  0.00    +0.047 A 
ATOM     23  C   UNL     1       6.553  -2.528  -0.414  0.00  0.00    +0.043 A 
ATOM     24 CL   UNL     1       6.305  -4.191  -0.847  0.00  0.00    -0.083 Cl
ATOM     25  C   UNL     1       7.821  -2.082  -0.086  0.00  0.00    +0.024 A 
ATOM     26  C   UNL     1       8.024  -0.759   0.260  0.00  0.00    +0.049 A 
BRANCH  20  28
ATOM     27  C   UNL     1       8.549   1.571   0.900  0.00  0.00    +0.277 C 
ATOM     28  O   UNL     1       7.155   1.426   0.621  0.00  0.00    -0.493 OA
ENDBRANCH  20  28
ENDBRANCH  16  21
ENDBRANCH  15  18
ENDBRANCH  14  15
ENDBRANCH   1  14
BRANCH   5  29
ATOM     29  C   UNL     1      -4.978  -0.704   0.853  0.00  0.00    +0.083 C 
BRANCH  29  30
ATOM     30  C   UNL     1      -5.452  -1.311  -0.469  0.00  0.00    +0.046 C 
BRANCH  30  31
ATOM     31  C   UNL     1      -6.580  -2.274  -0.203  0.00  0.00    -0.004 A 
ATOM     32  C   UNL     1      -6.455  -3.598   0.047  0.00  0.00    +0.036 A 
ATOM     33  C   UNL     1      -5.163  -4.371   0.116  0.00  0.00    +0.065 C 
ATOM     34  N   UNL     1      -7.693  -4.101   0.233  0.00  0.00    -0.281 N 
ATOM     35  H   UNL     1      -7.910  -5.025   0.431  0.00  0.00    +0.189 HD
ATOM     36  N   UNL     1      -8.611  -3.053   0.083  0.00  0.00    -0.179 NA
ATOM     37  C   UNL     1      -7.943  -1.959  -0.178  0.00  0.00    +0.063 A 
ATOM     38  C   UNL     1      -8.538  -0.594  -0.413  0.00  0.00    +0.068 C 
ENDBRANCH  30  31
ENDBRANCH  29  30
ENDBRANCH   5  29
TORSDOF 8
