REMARK  Name = m234
REMARK  12 active torsions:
REMARK  status: ('A' for Active; 'I' for Inactive)
REMARK    1  A    between atoms: C_1  and  C_2
REMARK    2  A    between atoms: C_2  and  N_3
REMARK    3  A    between atoms: N_3  and  C_4
REMARK    4  A    between atoms: C_4  and  C_5
REMARK    5  A    between atoms: C_6  and  C_8
REMARK    6  A    between atoms: C_10  and  C_11
REMARK    7  A    between atoms: C_13  and  S_14
REMARK    8  A    between atoms: S_14  and  N_17
REMARK    9  A    between atoms: C_20  and  C_21
REMARK   10  A    between atoms: C_25  and  C_26
REMARK   11  A    between atoms: N_27  and  C_28
REMARK   12  A    between atoms: C_30  and  C_31
REMARK                            x       y       z     vdW  Elec       q    Type
REMARK                         _______ _______ _______ _____ _____    ______ ____
ROOT
ATOM      1  C   UNL     1      -0.099   1.300  -0.103  0.00  0.00    +0.076 A 
ATOM      2  N   UNL     1      -0.895   2.230  -0.729  0.00  0.00    -0.344 N 
ATOM      3  C   UNL     1      -0.475   3.127  -1.809  0.00  0.00    +0.149 C 
ATOM      4  C   UNL     1      -2.139   2.174  -0.182  0.00  0.00    +0.043 A 
ATOM      5  C   UNL     1      -3.316   3.026  -0.584  0.00  0.00    +0.065 C 
ATOM      6  C   UNL     1      -2.143   1.228   0.785  0.00  0.00    +0.130 A 
ATOM      7  C   UNL     1      -0.859   0.670   0.843  0.00  0.00    +0.059 A 
ENDROOT
BRANCH   1  12
ATOM      8  C   UNL     1       3.870   0.253  -0.612  0.00  0.00    +0.097 A 
ATOM      9  C   UNL     1       3.360   1.258  -1.426  0.00  0.00    +0.058 A 
ATOM     10  C   UNL     1       4.237   1.924  -2.454  0.00  0.00    +0.067 C 
ATOM     11  N   UNL     1       2.112   1.608  -1.297  0.00  0.00    -0.242 NA
ATOM     12  C   UNL     1       1.316   1.035  -0.395  0.00  0.00    +0.126 A 
ATOM     13  S   UNL     1       2.426  -0.142   0.366  0.00  0.00    -0.061 S 
BRANCH   8  15
ATOM     14  N   UNL     1       5.464  -1.399   0.203  0.00  0.00    -0.298 N 
ATOM     15  C   UNL     1       5.217  -0.318  -0.564  0.00  0.00    +0.255 C 
ATOM     16  O   UNL     1       6.114   0.182  -1.217  0.00  0.00    -0.269 OA
BRANCH  14  18
ATOM     17  C   UNL     1       4.130  -1.412   2.253  0.00  0.00    +0.024 C 
ATOM     18  C   UNL     1       4.362  -2.074   0.893  0.00  0.00    +0.105 C 
ENDBRANCH  14  18
BRANCH  14  19
ATOM     19  C   UNL     1       6.834  -1.897   0.347  0.00  0.00    +0.105 C 
ATOM     20  C   UNL     1       7.498  -1.224   1.551  0.00  0.00    +0.024 C 
ENDBRANCH  14  19
ENDBRANCH   8  15
ENDBRANCH   1  12
BRANCH   6  21
ATOM     21  S   UNL     1      -3.517   0.778   1.793  0.00  0.00    +0.075 S 
ATOM     22  O   UNL     1      -4.039   1.998   2.301  0.00  0.00    -0.150 OA
ATOM     23  O   UNL     1      -3.075  -0.319   2.581  0.00  0.00    -0.150 OA
BRANCH  21  24
ATOM     24  N   UNL     1      -4.687   0.170   0.792  0.00  0.00    -0.199 N 
ATOM     25  H   UNL     1      -5.555   0.601   0.742  0.00  0.00    +0.175 HD
ATOM     26  C   UNL     1      -4.426  -0.958   0.022  0.00  0.00    +0.138 A 
ATOM     27  N   UNL     1      -3.273  -1.593   0.160  0.00  0.00    -0.239 NA
ATOM     28  C   UNL     1      -2.988  -2.671  -0.548  0.00  0.00    +0.113 A 
ATOM     29  C   UNL     1      -3.885  -3.169  -1.471  0.00  0.00    +0.023 A 
ATOM     30  C   UNL     1      -5.104  -2.528  -1.650  0.00  0.00    -0.046 A 
ATOM     31  C   UNL     1      -6.106  -3.044  -2.650  0.00  0.00    +0.044 C 
ATOM     32  C   UNL     1      -5.377  -1.405  -0.891  0.00  0.00    +0.048 A 
ENDBRANCH  21  24
ENDBRANCH   6  21
TORSDOF 6
