REMARK  Name = m235
REMARK  8 active torsions:
REMARK  status: ('A' for Active; 'I' for Inactive)
REMARK    1  A    between atoms: C_1  and  C_2
REMARK    2  A    between atoms: N_4  and  C_5
REMARK    3  A    between atoms: C_6  and  C_7
REMARK    4  A    between atoms: C_8  and  S_9
REMARK    5  A    between atoms: S_9  and  N_12
REMARK    6  A    between atoms: C_17  and  C_18
REMARK    7  A    between atoms: C_20  and  C_21
REMARK    8  A    between atoms: N_30  and  C_31
REMARK                            x       y       z     vdW  Elec       q    Type
REMARK                         _______ _______ _______ _____ _____    ______ ____
ROOT
ATOM      1  N   UNL     1       2.175   0.948  -0.000  0.00  0.00    -0.172 NA
ATOM      2  C   UNL     1       0.786   0.503   0.219  0.00  0.00    +0.148 C 
ATOM      3  C   UNL     1      -0.083   1.733   0.243  0.00  0.00    +0.022 A 
ATOM      4  C   UNL     1      -1.485   1.800   0.214  0.00  0.00    +0.154 A 
ATOM      5  N   UNL     1      -1.827   3.075   0.257  0.00  0.00    -0.166 NA
ATOM      6  N   UNL     1      -0.652   3.840   0.313  0.00  0.00    -0.270 N 
ATOM      7  C   UNL     1      -0.581   5.302   0.374  0.00  0.00    +0.172 C 
ATOM      8  C   UNL     1       0.398   2.997   0.300  0.00  0.00    +0.045 A 
ATOM      9  C   UNL     1       1.863   3.352   0.339  0.00  0.00    +0.072 C 
ATOM     10  C   UNL     1       2.662   2.111   0.755  0.00  0.00    +0.116 C 
ENDROOT
BRANCH   4  11
ATOM     11  C   UNL     1      -2.412   0.651   0.148  0.00  0.00    +0.279 A 
ATOM     12  O   UNL     1      -2.074  -0.647   0.099  0.00  0.00    -0.331 OA
ATOM     13  N   UNL     1      -3.073  -1.333   0.054  0.00  0.00    -0.056 NA
ATOM     14  C   UNL     1      -4.143  -0.579   0.059  0.00  0.00    +0.202 A 
ATOM     15  N   UNL     1      -3.731   0.705   0.120  0.00  0.00    -0.186 NA
BRANCH  14  16
ATOM     16  C   UNL     1      -5.550  -1.049   0.009  0.00  0.00    +0.022 A 
ATOM     17  C   UNL     1      -6.595  -0.128   0.027  0.00  0.00    +0.012 A 
ATOM     18  C   UNL     1      -7.902  -0.570  -0.025  0.00  0.00    +0.001 A 
ATOM     19  C   UNL     1      -8.174  -1.925  -0.085  0.00  0.00    +0.000 A 
ATOM     20  C   UNL     1      -7.140  -2.844  -0.099  0.00  0.00    +0.001 A 
ATOM     21  C   UNL     1      -5.830  -2.412  -0.052  0.00  0.00    +0.012 A 
ENDBRANCH  14  16
ENDBRANCH   4  11
BRANCH   1  22
ATOM     22  S   UNL     1       3.159   0.161  -1.075  0.00  0.00    +0.065 S 
ATOM     23  O   UNL     1       2.288  -0.509  -1.976  0.00  0.00    -0.153 OA
ATOM     24  O   UNL     1       4.158   1.101  -1.443  0.00  0.00    -0.153 OA
BRANCH  22  27
ATOM     25  C   UNL     1       6.074   0.266   0.520  0.00  0.00    +0.069 C 
ATOM     26  C   UNL     1       5.233  -0.983   0.458  0.00  0.00    +0.086 A 
ATOM     27  C   UNL     1       3.999  -1.109  -0.188  0.00  0.00    +0.148 A 
ATOM     28  C   UNL     1       3.568  -2.380  -0.018  0.00  0.00    +0.062 A 
ATOM     29  C   UNL     1       2.283  -2.961  -0.550  0.00  0.00    +0.067 C 
ATOM     30  N   UNL     1       4.493  -3.033   0.717  0.00  0.00    -0.269 N 
ATOM     31  C   UNL     1       4.425  -4.434   1.140  0.00  0.00    +0.172 C 
ATOM     32  N   UNL     1       5.529  -2.134   1.003  0.00  0.00    -0.174 NA
ENDBRANCH  22  27
ENDBRANCH   1  22
TORSDOF 4
