REMARK  Name = m237
REMARK  12 active torsions:
REMARK  status: ('A' for Active; 'I' for Inactive)
REMARK    1  A    between atoms: C_1  and  C_2
REMARK    2  A    between atoms: C_2  and  O_3
REMARK    3  A    between atoms: O_3  and  C_4
REMARK    4  A    between atoms: C_4  and  C_6
REMARK    5  A    between atoms: C_8  and  C_9
REMARK    6  A    between atoms: N_15  and  C_16
REMARK    7  A    between atoms: C_16  and  C_17
REMARK    8  A    between atoms: C_19  and  C_20
REMARK    9  A    between atoms: C_22  and  C_23
REMARK   10  A    between atoms: C_26  and  C_27
REMARK   11  A    between atoms: C_29  and  C_30
REMARK   12  A    between atoms: N_33  and  C_34
REMARK                            x       y       z     vdW  Elec       q    Type
REMARK                         _______ _______ _______ _____ _____    ______ ____
ROOT
ATOM      1  C   UNL     1       3.713  -0.169  -0.573  0.00  0.00    +0.077 A 
ATOM      2  C   UNL     1       2.599  -0.720   0.080  0.00  0.00    +0.096 A 
ATOM      3  C   UNL     1       1.651   0.113   0.841  0.00  0.00    +0.267 A 
ATOM      4  N   UNL     1       0.599  -0.497   1.431  0.00  0.00    -0.254 N 
ATOM      5  C   UNL     1       0.419  -1.823   1.328  0.00  0.00    +0.334 A 
ATOM      6  N   UNL     1       1.259  -2.623   0.650  0.00  0.00    -0.281 N 
ATOM      7  C   UNL     1       0.992  -4.062   0.586  0.00  0.00    +0.155 C 
ATOM      8  O   UNL     1      -0.543  -2.323   1.877  0.00  0.00    -0.246 OA
ATOM      9  O   UNL     1       1.811   1.314   0.935  0.00  0.00    -0.267 OA
ATOM     10  C   UNL     1       2.366  -2.103   0.003  0.00  0.00    +0.151 A 
ATOM     11  N   UNL     1       3.197  -2.880  -0.672  0.00  0.00    -0.234 NA
ATOM     12  C   UNL     1       4.254  -2.394  -1.291  0.00  0.00    +0.041 A 
ATOM     13  C   UNL     1       5.162  -3.334  -2.042  0.00  0.00    +0.065 C 
ATOM     14  C   UNL     1       4.553  -1.041  -1.269  0.00  0.00    +0.039 A 
ENDROOT
BRANCH   1  15
ATOM     15  C   UNL     1       3.991   1.285  -0.521  0.00  0.00    +0.340 C 
ATOM     16  O   UNL     1       3.125   2.080  -0.824  0.00  0.00    -0.245 OA
BRANCH  15  17
ATOM     17  O   UNL     1       5.205   1.725  -0.138  0.00  0.00    -0.461 OA
BRANCH  17  19
ATOM     18  C   UNL     1       6.919   3.377   0.376  0.00  0.00    +0.048 C 
ATOM     19  C   UNL     1       5.478   3.150  -0.087  0.00  0.00    +0.229 C 
ENDBRANCH  17  19
ENDBRANCH  15  17
ENDBRANCH   1  15
BRANCH   4  20
ATOM     20  C   UNL     1      -0.361   0.304   2.195  0.00  0.00    +0.188 C 
BRANCH  20  21
ATOM     21  C   UNL     1      -1.464   0.773   1.281  0.00  0.00    +0.103 A 
ATOM     22  C   UNL     1      -1.476   1.922   0.579  0.00  0.00    +0.127 A 
ATOM     23  C   UNL     1      -0.392   2.968   0.559  0.00  0.00    +0.088 C 
ATOM     24  O   UNL     1      -2.635   1.958  -0.108  0.00  0.00    -0.440 OA
ATOM     25  C   UNL     1      -3.320   0.839   0.186  0.00  0.00    +0.228 A 
ATOM     26  N   UNL     1      -2.610   0.124   1.026  0.00  0.00    -0.212 NA
BRANCH  25  27
ATOM     27  C   UNL     1      -4.649   0.476  -0.347  0.00  0.00    +0.040 A 
ATOM     28  C   UNL     1      -4.916   0.602  -1.712  0.00  0.00    -0.038 A 
ATOM     29  C   UNL     1      -3.845   1.102  -2.647  0.00  0.00    +0.044 C 
ATOM     30  C   UNL     1      -6.158   0.257  -2.204  0.00  0.00    +0.004 A 
ATOM     31  C   UNL     1      -7.141  -0.203  -1.346  0.00  0.00    +0.003 A 
ATOM     32  C   UNL     1      -6.886  -0.325   0.008  0.00  0.00    -0.050 A 
ATOM     33  C   UNL     1      -7.963  -0.826   0.934  0.00  0.00    +0.044 C 
ATOM     34  C   UNL     1      -5.647   0.012   0.512  0.00  0.00    +0.016 A 
ENDBRANCH  25  27
ENDBRANCH  20  21
ENDBRANCH   4  20
TORSDOF 6
