REMARK  Name = m238
REMARK  8 active torsions:
REMARK  status: ('A' for Active; 'I' for Inactive)
REMARK    1  A    between atoms: C_1  and  O_2
REMARK    2  A    between atoms: O_2  and  C_3
REMARK    3  A    between atoms: C_3  and  C_4
REMARK    4  A    between atoms: C_4  and  N_5
REMARK    5  A    between atoms: C_6  and  C_8
REMARK    6  A    between atoms: C_16  and  C_17
REMARK    7  A    between atoms: C_20  and  C_22
REMARK    8  A    between atoms: C_26  and  C_27
REMARK                            x       y       z     vdW  Elec       q    Type
REMARK                         _______ _______ _______ _____ _____    ______ ____
ROOT
ATOM      1  C   UNL     1       2.342   0.347  -0.023  0.00  0.00    +0.082 A 
ATOM      2  C   UNL     1       1.400   1.272   0.300  0.00  0.00    +0.011 A 
ATOM      3  C   UNL     1       1.721   2.640   0.266  0.00  0.00    +0.014 A 
ATOM      4  C   UNL     1       3.047   2.947  -0.127  0.00  0.00    +0.109 A 
ATOM      5  N   UNL     1       3.494   4.179  -0.211  0.00  0.00    -0.248 NA
ATOM      6  C   UNL     1       2.718   5.209   0.071  0.00  0.00    +0.112 A 
ATOM      7  C   UNL     1       1.403   5.010   0.467  0.00  0.00    +0.020 A 
ATOM      8  C   UNL     1       0.891   3.750   0.570  0.00  0.00    +0.012 A 
ATOM      9  S   UNL     1       3.766   1.348  -0.416  0.00  0.00    -0.064 S 
ENDROOT
BRANCH   2  10
ATOM     10  C   UNL     1       0.016   0.831   0.700  0.00  0.00    +0.167 C 
ATOM     11  O   UNL     1       0.111  -0.257   1.618  0.00  0.00    -0.369 OA
ATOM     12  C   UNL     1      -1.197  -0.509   2.130  0.00  0.00    +0.179 C 
ATOM     13  C   UNL     1      -2.084  -1.077   1.016  0.00  0.00    +0.136 C 
ATOM     14  N   UNL     1      -2.068  -0.130  -0.112  0.00  0.00    -0.292 N 
ATOM     15  C   UNL     1      -3.208   0.249  -0.724  0.00  0.00    +0.257 C 
ATOM     16  O   UNL     1      -3.184   1.131  -1.561  0.00  0.00    -0.269 OA
ATOM     17  C   UNL     1      -0.759   0.387  -0.545  0.00  0.00    +0.144 C 
BRANCH  15  18
ATOM     18  C   UNL     1      -4.480  -0.405  -0.379  0.00  0.00    +0.117 A 
ATOM     19  C   UNL     1      -5.779  -0.086  -0.758  0.00  0.00    +0.081 A 
ATOM     20  C   UNL     1      -6.117   1.071  -1.662  0.00  0.00    +0.069 C 
ATOM     21  N   UNL     1      -6.682  -0.897  -0.260  0.00  0.00    -0.146 NA
ATOM     22  N   UNL     1      -6.370  -1.877   0.508  0.00  0.00    -0.110 NA
ATOM     23  S   UNL     1      -4.796  -1.828   0.650  0.00  0.00    +0.041 S 
ENDBRANCH  15  18
ENDBRANCH   2  10
BRANCH   1  26
ATOM     24  N   UNL     1       3.272  -1.877  -0.405  0.00  0.00    -0.309 N 
ATOM     25  H   UNL     1       4.113  -1.458  -0.644  0.00  0.00    +0.149 HD
ATOM     26  C   UNL     1       2.217  -1.117  -0.049  0.00  0.00    +0.251 C 
ATOM     27  O   UNL     1       1.162  -1.643   0.252  0.00  0.00    -0.270 OA
BRANCH  24  28
ATOM     28  C   UNL     1       3.147  -3.337  -0.430  0.00  0.00    +0.132 C 
BRANCH  28  29
ATOM     29  C   UNL     1       4.478  -3.955  -0.865  0.00  0.00    +0.178 C 
BRANCH  29  31
ATOM     30  C   UNL     1       6.688  -4.277  -0.341  0.00  0.00    +0.194 C 
ATOM     31  O   UNL     1       5.476  -3.678   0.120  0.00  0.00    -0.381 OA
ENDBRANCH  29  31
ENDBRANCH  28  29
ENDBRANCH  24  28
ENDBRANCH   1  26
TORSDOF 6
