REMARK  Name = m239
REMARK  13 active torsions:
REMARK  status: ('A' for Active; 'I' for Inactive)
REMARK    1  A    between atoms: C_1  and  C_2
REMARK    2  A    between atoms: C_2  and  O_3
REMARK    3  A    between atoms: O_3  and  C_4
REMARK    4  A    between atoms: C_4  and  C_6
REMARK    5  A    between atoms: C_8  and  N_9
REMARK    6  A    between atoms: C_10  and  C_12
REMARK    7  A    between atoms: C_14  and  C_15
REMARK    8  A    between atoms: C_22  and  C_23
REMARK    9  A    between atoms: C_24  and  C_25
REMARK   10  A    between atoms: C_25  and  O_27
REMARK   11  A    between atoms: O_27  and  C_28
REMARK   12  A    between atoms: C_28  and  C_29
REMARK   13  A    between atoms: C_30  and  C_31
REMARK                            x       y       z     vdW  Elec       q    Type
REMARK                         _______ _______ _______ _____ _____    ______ ____
ROOT
ATOM      1  C   UNL     1       4.168   0.224  -0.116  0.00  0.00    +0.102 A 
ATOM      2  C   UNL     1       3.713  -1.055  -0.298  0.00  0.00    -0.014 A 
ATOM      3  C   UNL     1       4.670  -2.207  -0.464  0.00  0.00    +0.046 C 
ATOM      4  C   UNL     1       2.342  -1.254  -0.313  0.00  0.00    +0.091 A 
ATOM      5  C   UNL     1       1.519  -0.133  -0.152  0.00  0.00    +0.087 A 
ATOM      6  S   UNL     1       2.658   1.161   0.023  0.00  0.00    -0.066 S 
ENDROOT
BRANCH   5   7
ATOM      7  N   UNL     1       0.141  -0.073  -0.138  0.00  0.00    -0.275 N 
ATOM      8  H   UNL     1      -0.381  -0.883  -0.248  0.00  0.00    +0.156 HD
ATOM      9  C   UNL     1      -0.480   1.111   0.031  0.00  0.00    +0.257 C 
ATOM     10  O   UNL     1       0.175   2.127   0.170  0.00  0.00    -0.269 OA
BRANCH   9  11
ATOM     11  C   UNL     1      -1.944   1.175   0.047  0.00  0.00    +0.097 A 
ATOM     12  C   UNL     1      -2.783   2.271   0.209  0.00  0.00    +0.058 A 
ATOM     13  C   UNL     1      -2.225   3.658   0.400  0.00  0.00    +0.067 C 
ATOM     14  N   UNL     1      -4.071   2.060   0.180  0.00  0.00    -0.243 NA
ATOM     15  C   UNL     1      -4.572   0.844   0.013  0.00  0.00    +0.109 A 
ATOM     16  S   UNL     1      -3.146  -0.136  -0.130  0.00  0.00    -0.062 S 
BRANCH  15  17
ATOM     17  C   UNL     1      -5.989   0.427  -0.039  0.00  0.00    +0.007 A 
ATOM     18  C   UNL     1      -7.004   1.375   0.104  0.00  0.00    +0.010 A 
ATOM     19  C   UNL     1      -8.325   0.980   0.050  0.00  0.00    +0.001 A 
ATOM     20  C   UNL     1      -8.644  -0.354  -0.134  0.00  0.00    +0.000 A 
ATOM     21  C   UNL     1      -7.643  -1.299  -0.271  0.00  0.00    +0.001 A 
ATOM     22  C   UNL     1      -6.318  -0.916  -0.225  0.00  0.00    +0.010 A 
ENDBRANCH  15  17
ENDBRANCH   9  11
ENDBRANCH   5   7
BRANCH   1  23
ATOM     23  C   UNL     1       5.549   0.702  -0.056  0.00  0.00    +0.346 C 
ATOM     24  O   UNL     1       6.470  -0.084  -0.170  0.00  0.00    -0.244 OA
BRANCH  23  25
ATOM     25  O   UNL     1       5.801   2.015   0.127  0.00  0.00    -0.461 OA
BRANCH  25  27
ATOM     26  C   UNL     1       7.577   3.639   0.345  0.00  0.00    +0.048 C 
ATOM     27  C   UNL     1       7.222   2.164   0.140  0.00  0.00    +0.229 C 
ENDBRANCH  25  27
ENDBRANCH  23  25
ENDBRANCH   1  23
BRANCH   4  28
ATOM     28  C   UNL     1       1.771  -2.594  -0.497  0.00  0.00    +0.342 C 
ATOM     29  O   UNL     1       1.530  -3.003  -1.616  0.00  0.00    -0.245 OA
BRANCH  28  30
ATOM     30  O   UNL     1       1.516  -3.370   0.575  0.00  0.00    -0.461 OA
BRANCH  30  31
ATOM     31  C   UNL     1       0.951  -4.696   0.393  0.00  0.00    +0.229 C 
ATOM     32  C   UNL     1       0.761  -5.361   1.758  0.00  0.00    +0.048 C 
ENDBRANCH  30  31
ENDBRANCH  28  30
ENDBRANCH   4  28
TORSDOF 9
