REMARK  Name = m240
REMARK  7 active torsions:
REMARK  status: ('A' for Active; 'I' for Inactive)
REMARK    1  A    between atoms: C_1  and  O_2
REMARK    2  A    between atoms: O_2  and  C_3
REMARK    3  A    between atoms: C_3  and  C_5
REMARK    4  A    between atoms: C_7  and  C_8
REMARK    5  A    between atoms: N_14  and  C_15
REMARK    6  A    between atoms: C_15  and  C_16
REMARK    7  A    between atoms: N_26  and  C_27
REMARK                            x       y       z     vdW  Elec       q    Type
REMARK                         _______ _______ _______ _____ _____    ______ ____
ROOT
ATOM      1  C   UNL     1       2.437   2.039  -0.209  0.00  0.00    +0.077 A 
ATOM      2  C   UNL     1       1.564   0.971   0.054  0.00  0.00    +0.096 A 
ATOM      3  C   UNL     1       0.148   1.188   0.395  0.00  0.00    +0.267 A 
ATOM      4  N   UNL     1      -0.627   0.105   0.622  0.00  0.00    -0.251 N 
ATOM      5  C   UNL     1      -0.124  -1.137   0.539  0.00  0.00    +0.338 A 
ATOM      6  N   UNL     1       1.162  -1.385   0.237  0.00  0.00    -0.246 N 
ATOM      7  O   UNL     1      -0.862  -2.079   0.753  0.00  0.00    -0.246 OA
ATOM      8  O   UNL     1      -0.312   2.311   0.471  0.00  0.00    -0.267 OA
ATOM      9  C   UNL     1       2.043  -0.348  -0.021  0.00  0.00    +0.155 A 
ATOM     10  N   UNL     1       3.309  -0.579  -0.325  0.00  0.00    -0.233 NA
ATOM     11  C   UNL     1       4.154   0.402  -0.571  0.00  0.00    +0.041 A 
ATOM     12  C   UNL     1       5.584   0.070  -0.912  0.00  0.00    +0.065 C 
ATOM     13  C   UNL     1       3.762   1.730  -0.524  0.00  0.00    +0.039 A 
ENDROOT
BRANCH   6  14
ATOM     14  C   UNL     1       1.613  -2.710   0.169  0.00  0.00    +0.053 A 
ATOM     15  C   UNL     1       2.865  -3.044   0.668  0.00  0.00    +0.026 A 
ATOM     16  C   UNL     1       3.305  -4.352   0.605  0.00  0.00    +0.002 A 
ATOM     17  C   UNL     1       2.505  -5.325   0.035  0.00  0.00    +0.000 A 
ATOM     18  C   UNL     1       1.260  -4.994  -0.467  0.00  0.00    +0.002 A 
ATOM     19  C   UNL     1       0.812  -3.689  -0.402  0.00  0.00    +0.026 A 
ENDBRANCH   6  14
BRANCH   1  20
ATOM     20  C   UNL     1       1.971   3.444  -0.147  0.00  0.00    +0.340 C 
ATOM     21  O   UNL     1       0.989   3.786  -0.773  0.00  0.00    -0.245 OA
BRANCH  20  23
ATOM     22  C   UNL     1       2.180   5.718   0.666  0.00  0.00    +0.280 C 
ATOM     23  O   UNL     1       2.637   4.341   0.605  0.00  0.00    -0.464 OA
ENDBRANCH  20  23
ENDBRANCH   1  20
BRANCH   4  24
ATOM     24  C   UNL     1      -2.040   0.288   0.964  0.00  0.00    +0.225 C 
BRANCH  24  25
ATOM     25  C   UNL     1      -2.864   0.304  -0.298  0.00  0.00    +0.236 C 
ATOM     26  N   UNL     1      -4.200   0.462  -0.228  0.00  0.00    -0.300 N 
ATOM     27  C   UNL     1      -4.870   0.613   1.071  0.00  0.00    +0.108 C 
ATOM     28  C   UNL     1      -5.986  -0.425   1.179  0.00  0.00    +0.019 C 
ATOM     29  C   UNL     1      -6.918  -0.295  -0.027  0.00  0.00    +0.003 C 
ATOM     30  C   UNL     1      -6.132  -0.561  -1.313  0.00  0.00    +0.019 C 
ATOM     31  C   UNL     1      -5.017   0.480  -1.450  0.00  0.00    +0.108 C 
ATOM     32  O   UNL     1      -2.324   0.176  -1.377  0.00  0.00    -0.274 OA
ENDBRANCH  24  25
ENDBRANCH   4  24
TORSDOF 5
