REMARK  Name = m242
REMARK  12 active torsions:
REMARK  status: ('A' for Active; 'I' for Inactive)
REMARK    1  A    between atoms: C_1  and  O_2
REMARK    2  A    between atoms: O_2  and  C_3
REMARK    3  A    between atoms: C_7  and  N_8
REMARK    4  A    between atoms: C_9  and  C_11
REMARK    5  A    between atoms: C_11  and  N_12
REMARK    6  A    between atoms: N_12  and  C_13
REMARK    7  A    between atoms: C_14  and  C_16
REMARK    8  A    between atoms: C_16  and  C_17
REMARK    9  A    between atoms: C_17  and  C_18
REMARK   10  A    between atoms: C_19  and  C_20
REMARK   11  A    between atoms: C_22  and  C_23
REMARK   12  A    between atoms: N_25  and  C_26
REMARK                            x       y       z     vdW  Elec       q    Type
REMARK                         _______ _______ _______ _____ _____    ______ ____
ROOT
ATOM      1  N   UNL     1       1.031  -1.766  -0.748  0.00  0.00    -0.296 N 
ATOM      2  C   UNL     1       0.166  -1.318   0.184  0.00  0.00    +0.216 C 
ATOM      3  O   UNL     1       0.471  -1.345   1.357  0.00  0.00    -0.276 OA
ATOM      4  C   UNL     1       0.661  -1.734  -2.166  0.00  0.00    +0.132 C 
ENDROOT
BRANCH   1   5
ATOM      5  C   UNL     1       2.340  -2.284  -0.344  0.00  0.00    +0.203 C 
BRANCH   5   8
ATOM      6  N   UNL     1       4.620  -1.399   0.026  0.00  0.00    -0.284 N 
ATOM      7  H   UNL     1       4.915  -2.309   0.185  0.00  0.00    +0.155 HD
ATOM      8  C   UNL     1       3.340  -1.157  -0.320  0.00  0.00    +0.235 C 
ATOM      9  O   UNL     1       2.994  -0.032  -0.611  0.00  0.00    -0.274 OA
BRANCH   6  12
ATOM     10  C   UNL     1       7.750   0.535  -0.041  0.00  0.00    +0.122 A 
ATOM     11  C   UNL     1       6.858  -0.517  -0.177  0.00  0.00    +0.069 A 
ATOM     12  C   UNL     1       5.523  -0.338   0.156  0.00  0.00    +0.037 A 
ATOM     13  C   UNL     1       5.082   0.897   0.613  0.00  0.00    +0.023 A 
ATOM     14  C   UNL     1       5.974   1.945   0.742  0.00  0.00    +0.005 A 
ATOM     15  C   UNL     1       7.305   1.768   0.416  0.00  0.00    +0.046 A 
BRANCH  10  17
ATOM     16  C   UNL     1       9.712   1.611  -0.124  0.00  0.00    +0.277 C 
ATOM     17  O   UNL     1       9.059   0.362  -0.361  0.00  0.00    -0.495 OA
ENDBRANCH  10  17
ENDBRANCH   6  12
ENDBRANCH   5   8
ENDBRANCH   1   5
BRANCH   2  18
ATOM     18  C   UNL     1      -1.181  -0.786  -0.232  0.00  0.00    +0.101 C 
BRANCH  18  19
ATOM     19  C   UNL     1      -1.962  -0.347   1.008  0.00  0.00    +0.050 C 
BRANCH  19  20
ATOM     20  C   UNL     1      -3.309   0.186   0.593  0.00  0.00    +0.021 A 
ATOM     21  C   UNL     1      -3.450   1.539   0.235  0.00  0.00    +0.254 A 
ATOM     22  O   UNL     1      -2.476   2.274   0.261  0.00  0.00    -0.268 OA
ATOM     23  N   UNL     1      -4.644   2.032  -0.144  0.00  0.00    -0.307 N 
ATOM     24  H   UNL     1      -4.722   2.967  -0.391  0.00  0.00    +0.170 HD
ATOM     25  C   UNL     1      -5.750   1.226  -0.180  0.00  0.00    +0.139 A 
ATOM     26  C   UNL     1      -5.642  -0.120   0.174  0.00  0.00    +0.043 A 
ATOM     27  C   UNL     1      -6.931  -0.689   0.041  0.00  0.00    +0.069 A 
ATOM     28  N   UNL     1      -7.746   0.244  -0.361  0.00  0.00    -0.174 NA
ATOM     29  C   UNL     1      -7.297  -2.125   0.318  0.00  0.00    +0.068 C 
ATOM     30  N   UNL     1      -7.042   1.445  -0.508  0.00  0.00    -0.251 N 
ATOM     31  C   UNL     1      -7.611   2.723  -0.942  0.00  0.00    +0.174 C 
ATOM     32  C   UNL     1      -4.388  -0.640   0.568  0.00  0.00    -0.030 A 
ATOM     33  C   UNL     1      -4.249  -2.090   0.954  0.00  0.00    +0.045 C 
ENDBRANCH  19  20
ENDBRANCH  18  19
ENDBRANCH   2  18
TORSDOF 7
