REMARK  Name = m243
REMARK  4 active torsions:
REMARK  status: ('A' for Active; 'I' for Inactive)
REMARK    1  A    between atoms: C_1  and  C_2
REMARK    2  A    between atoms: C_7  and  C_8
REMARK    3  A    between atoms: C_14  and  C_15
REMARK    4  A    between atoms: C_16  and  C_17
REMARK                            x       y       z     vdW  Elec       q    Type
REMARK                         _______ _______ _______ _____ _____    ______ ____
ROOT
ATOM      1  C   UNL     1      -1.151   1.187  -0.424  0.00  0.00    +0.011 A 
ATOM      2  C   UNL     1      -1.480   2.535  -0.201  0.00  0.00    +0.014 A 
ATOM      3  C   UNL     1      -2.838   2.790   0.110  0.00  0.00    +0.109 A 
ATOM      4  N   UNL     1      -3.298   3.999   0.340  0.00  0.00    -0.248 NA
ATOM      5  C   UNL     1      -2.507   5.053   0.287  0.00  0.00    +0.112 A 
ATOM      6  C   UNL     1      -1.160   4.907  -0.016  0.00  0.00    +0.020 A 
ATOM      7  S   UNL     1      -3.570   1.171   0.089  0.00  0.00    -0.064 S 
ATOM      8  C   UNL     1      -0.633   3.673  -0.263  0.00  0.00    +0.012 A 
ATOM      9  C   UNL     1      -2.111   0.231  -0.325  0.00  0.00    +0.082 A 
ENDROOT
BRANCH   1  13
ATOM     10  C   UNL     1       3.357  -0.015   0.823  0.00  0.00    +0.250 C 
ATOM     11  N   UNL     1       2.277  -0.287   0.064  0.00  0.00    -0.292 N 
ATOM     12  C   UNL     1       0.931   0.162   0.461  0.00  0.00    +0.144 C 
ATOM     13  C   UNL     1       0.266   0.802  -0.767  0.00  0.00    +0.167 C 
ATOM     14  O   UNL     1       0.256  -0.132  -1.845  0.00  0.00    -0.369 OA
ATOM     15  C   UNL     1       1.605  -0.312  -2.275  0.00  0.00    +0.179 C 
ATOM     16  C   UNL     1       2.396  -1.051  -1.190  0.00  0.00    +0.136 C 
ATOM     17  O   UNL     1       3.255   0.720   1.786  0.00  0.00    -0.270 OA
BRANCH  10  20
ATOM     18  C   UNL     1       6.157   1.477   0.921  0.00  0.00    +0.068 C 
ATOM     19  C   UNL     1       5.917   0.044   0.522  0.00  0.00    +0.072 A 
ATOM     20  C   UNL     1       4.664  -0.609   0.484  0.00  0.00    +0.077 A 
ATOM     21  C   UNL     1       4.891  -1.904   0.063  0.00  0.00    +0.118 A 
ATOM     22  N   UNL     1       6.212  -2.035  -0.136  0.00  0.00    -0.284 N 
ATOM     23  H   UNL     1       6.663  -2.841  -0.432  0.00  0.00    +0.188 HD
ATOM     24  N   UNL     1       6.829  -0.813   0.155  0.00  0.00    -0.178 NA
ENDBRANCH  10  20
ENDBRANCH   1  13
BRANCH   9  25
ATOM     25  C   UNL     1      -1.980  -1.221  -0.511  0.00  0.00    +0.254 C 
ATOM     26  N   UNL     1      -3.020  -2.033  -0.235  0.00  0.00    -0.293 N 
ATOM     27  C   UNL     1      -4.146  -1.577   0.598  0.00  0.00    +0.136 C 
ATOM     28  C   UNL     1      -4.447  -2.658   1.636  0.00  0.00    +0.179 C 
ATOM     29  O   UNL     1      -4.692  -3.900   0.978  0.00  0.00    -0.377 OA
ATOM     30  C   UNL     1      -3.461  -4.339   0.406  0.00  0.00    +0.179 C 
ATOM     31  C   UNL     1      -3.072  -3.412  -0.750  0.00  0.00    +0.136 C 
ATOM     32  O   UNL     1      -0.933  -1.691  -0.913  0.00  0.00    -0.269 OA
ENDBRANCH   9  25
TORSDOF 3
