REMARK  Name = m244
REMARK  5 active torsions:
REMARK  status: ('A' for Active; 'I' for Inactive)
REMARK    1  A    between atoms: C_1  and  N_2
REMARK    2  A    between atoms: C_10  and  C_11
REMARK    3  A    between atoms: C_11  and  N_12
REMARK    4  A    between atoms: C_13  and  C_15
REMARK    5  A    between atoms: C_20  and  C_21
REMARK                            x       y       z     vdW  Elec       q    Type
REMARK                         _______ _______ _______ _____ _____    ______ ____
ROOT
ATOM      1  N   UNL     1      -0.096   0.031  -0.897  0.00  0.00    -0.306 N 
ATOM      2  H   UNL     1       0.477  -0.722  -1.109  0.00  0.00    +0.149 HD
ATOM      3  C   UNL     1      -1.404  -0.169  -0.637  0.00  0.00    +0.248 C 
ATOM      4  O   UNL     1      -2.123   0.775  -0.372  0.00  0.00    -0.270 OA
ENDROOT
BRANCH   3   5
ATOM      5  C   UNL     1      -1.961  -1.531  -0.675  0.00  0.00    +0.082 A 
ATOM      6  C   UNL     1      -3.352  -1.919  -0.413  0.00  0.00    +0.111 A 
ATOM      7  N   UNL     1      -3.419  -3.225  -0.557  0.00  0.00    -0.173 NA
ATOM      8  N   UNL     1      -2.151  -3.713  -0.888  0.00  0.00    -0.283 N 
ATOM      9  H   UNL     1      -1.935  -4.646  -1.042  0.00  0.00    +0.188 HD
ATOM     10  C   UNL     1      -1.279  -2.696  -0.958  0.00  0.00    +0.118 A 
BRANCH   6  11
ATOM     11  C   UNL     1      -4.467  -1.015  -0.065  0.00  0.00    +0.041 A 
ATOM     12  S   UNL     1      -4.445   0.463   0.936  0.00  0.00    -0.075 S 
ATOM     13  C   UNL     1      -6.177   0.880   0.808  0.00  0.00    +0.079 A 
ATOM     14 CL   UNL     1      -7.031   2.220   1.507  0.00  0.00    -0.076 Cl
ATOM     15  C   UNL     1      -6.655  -0.125   0.028  0.00  0.00    +0.028 A 
ATOM     16  C   UNL     1      -5.787  -1.096  -0.421  0.00  0.00    +0.019 A 
ENDBRANCH   6  11
ENDBRANCH   3   5
BRANCH   1  17
ATOM     17  C   UNL     1       0.459   1.386  -0.859  0.00  0.00    +0.160 C 
BRANCH  17  25
ATOM     18  C   UNL     1       8.091  -1.272   2.467  0.00  0.00    +0.105 C 
ATOM     19  N   UNL     1       7.136  -0.992   1.387  0.00  0.00    -0.302 NA
ATOM     20  C   UNL     1       5.798  -1.006   1.992  0.00  0.00    +0.103 C 
ATOM     21  C   UNL     1       4.757  -0.600   0.948  0.00  0.00    +0.123 C 
ATOM     22  N   UNL     1       5.011   0.777   0.507  0.00  0.00    -0.297 N 
ATOM     23  C   UNL     1       4.111   1.041  -0.511  0.00  0.00    +0.218 A 
ATOM     24  N   UNL     1       2.816   1.081  -0.235  0.00  0.00    -0.218 NA
ATOM     25  C   UNL     1       1.930   1.336  -1.183  0.00  0.00    +0.063 A 
ATOM     26  C   UNL     1       2.370   1.551  -2.480  0.00  0.00    +0.045 A 
ATOM     27  C   UNL     1       3.731   1.495  -2.735  0.00  0.00    +0.116 A 
ATOM     28  N   UNL     1       4.564   1.241  -1.740  0.00  0.00    -0.223 NA
ATOM     29  C   UNL     1       6.348   0.790  -0.099  0.00  0.00    +0.123 C 
ATOM     30  C   UNL     1       7.389   0.385   0.945  0.00  0.00    +0.103 C 
ENDBRANCH  17  25
ENDBRANCH   1  17
TORSDOF 4
