REMARK  Name = m245
REMARK  6 active torsions:
REMARK  status: ('A' for Active; 'I' for Inactive)
REMARK    1  A    between atoms: C_1  and  C_2
REMARK    2  A    between atoms: C_8  and  S_9
REMARK    3  A    between atoms: S_9  and  N_12
REMARK    4  A    between atoms: C_17  and  C_18
REMARK    5  A    between atoms: C_20  and  C_21
REMARK    6  A    between atoms: N_30  and  C_31
REMARK                            x       y       z     vdW  Elec       q    Type
REMARK                         _______ _______ _______ _____ _____    ______ ____
ROOT
ATOM      1  N   UNL     1       2.042   0.904  -0.040  0.00  0.00    -0.172 NA
ATOM      2  C   UNL     1       0.659   0.443   0.180  0.00  0.00    +0.148 C 
ATOM      3  C   UNL     1      -0.219   1.664   0.245  0.00  0.00    +0.022 A 
ATOM      4  C   UNL     1      -1.622   1.721   0.231  0.00  0.00    +0.154 A 
ATOM      5  N   UNL     1      -1.973   2.992   0.310  0.00  0.00    -0.166 NA
ATOM      6  N   UNL     1      -0.804   3.765   0.375  0.00  0.00    -0.270 N 
ATOM      7  C   UNL     1      -0.743   5.225   0.473  0.00  0.00    +0.172 C 
ATOM      8  C   UNL     1       0.252   2.931   0.330  0.00  0.00    +0.045 A 
ATOM      9  C   UNL     1       1.715   3.296   0.364  0.00  0.00    +0.072 C 
ATOM     10  C   UNL     1       2.528   2.051   0.741  0.00  0.00    +0.116 C 
ENDROOT
BRANCH   4  11
ATOM     11  C   UNL     1      -2.541   0.567   0.144  0.00  0.00    +0.279 A 
ATOM     12  O   UNL     1      -2.193  -0.727   0.058  0.00  0.00    -0.331 OA
ATOM     13  N   UNL     1      -3.188  -1.419   0.005  0.00  0.00    -0.056 NA
ATOM     14  C   UNL     1      -4.263  -0.674   0.040  0.00  0.00    +0.202 A 
ATOM     15  N   UNL     1      -3.860   0.611   0.130  0.00  0.00    -0.186 NA
BRANCH  14  16
ATOM     16  C   UNL     1      -5.667  -1.154  -0.009  0.00  0.00    +0.022 A 
ATOM     17  C   UNL     1      -6.719  -0.242   0.043  0.00  0.00    +0.012 A 
ATOM     18  C   UNL     1      -8.023  -0.694  -0.008  0.00  0.00    +0.001 A 
ATOM     19  C   UNL     1      -8.285  -2.049  -0.100  0.00  0.00    +0.000 A 
ATOM     20  C   UNL     1      -7.244  -2.958  -0.147  0.00  0.00    +0.001 A 
ATOM     21  C   UNL     1      -5.937  -2.517  -0.102  0.00  0.00    +0.012 A 
ENDBRANCH  14  16
ENDBRANCH   4  11
BRANCH   1  22
ATOM     22  S   UNL     1       3.021   0.153  -1.145  0.00  0.00    +0.061 S 
ATOM     23  O   UNL     1       2.157  -0.627  -1.960  0.00  0.00    -0.153 OA
ATOM     24  O   UNL     1       3.913   1.155  -1.614  0.00  0.00    -0.153 OA
BRANCH  22  27
ATOM     25  C   UNL     1       1.934  -2.244   0.344  0.00  0.00    +0.046 C 
ATOM     26  C   UNL     1       3.430  -2.067   0.390  0.00  0.00    -0.024 A 
ATOM     27  C   UNL     1       4.019  -1.002  -0.264  0.00  0.00    +0.111 A 
ATOM     28  C   UNL     1       5.391  -0.835  -0.218  0.00  0.00    +0.067 A 
ATOM     29  C   UNL     1       6.175  -1.743   0.473  0.00  0.00    +0.125 A 
ATOM     30  F   UNL     1       7.516  -1.585   0.513  0.00  0.00    -0.205 F 
ATOM     31  C   UNL     1       5.583  -2.813   1.123  0.00  0.00    +0.039 A 
ATOM     32  C   UNL     1       4.212  -2.974   1.080  0.00  0.00    +0.008 A 
ENDBRANCH  22  27
ENDBRANCH   1  22
TORSDOF 4
