REMARK  Name = m246
REMARK  10 active torsions:
REMARK  status: ('A' for Active; 'I' for Inactive)
REMARK    1  A    between atoms: C_1  and  C_2
REMARK    2  A    between atoms: C_2  and  O_3
REMARK    3  A    between atoms: O_3  and  C_4
REMARK    4  A    between atoms: C_6  and  C_7
REMARK    5  A    between atoms: C_11  and  C_12
REMARK    6  A    between atoms: C_15  and  O_16
REMARK    7  A    between atoms: C_17  and  O_18
REMARK    8  A    between atoms: O_18  and  C_19
REMARK    9  A    between atoms: C_28  and  C_29
REMARK   10  A    between atoms: C_33  and  O_34
REMARK                            x       y       z     vdW  Elec       q    Type
REMARK                         _______ _______ _______ _____ _____    ______ ____
ROOT
ATOM      1  C   UNL     1      -1.881  -1.015  -0.648  0.00  0.00    +0.091 C 
ATOM      2  C   UNL     1      -2.269  -2.317  -0.023  0.00  0.00    +0.049 A 
ATOM      3  C   UNL     1      -1.386  -3.111   0.662  0.00  0.00    +0.226 A 
ATOM      4  O   UNL     1      -2.077  -4.168   1.074  0.00  0.00    -0.339 OA
ATOM      5  N   UNL     1      -3.238  -4.099   0.720  0.00  0.00    -0.081 NA
ATOM      6  N   UNL     1      -0.064  -2.745   0.809  0.00  0.00    -0.286 N 
ATOM      7  H   UNL     1       0.505  -3.192   1.456  0.00  0.00    +0.155 HD
ATOM      8  C   UNL     1       0.430  -1.734   0.020  0.00  0.00    +0.019 C 
ATOM      9  C   UNL     1       1.934  -1.589  -0.040  0.00  0.00    +0.059 C 
ATOM     10  C   UNL     1       2.304  -0.121  -0.258  0.00  0.00    +0.032 C 
ATOM     11  C   UNL     1       1.654   0.350  -1.564  0.00  0.00    +0.088 C 
ATOM     12  C   UNL     1       0.171   0.122  -1.478  0.00  0.00    +0.162 C 
ATOM     13  O   UNL     1      -0.578   0.838  -2.114  0.00  0.00    -0.292 OA
ATOM     14  C   UNL     1      -3.477  -3.007   0.038  0.00  0.00    +0.087 A 
ATOM     15  C   UNL     1      -4.794  -2.581  -0.559  0.00  0.00    +0.069 C 
ATOM     16  C   UNL     1      -0.370  -0.902  -0.679  0.00  0.00    +0.024 C 
ENDROOT
BRANCH   1  21
ATOM     17  C   UNL     1      -3.857   2.058   0.315  0.00  0.00    +0.162 A 
ATOM     18  C   UNL     1      -3.497   2.209   1.651  0.00  0.00    +0.158 A 
ATOM     19  C   UNL     1      -2.622   1.308   2.236  0.00  0.00    +0.049 A 
ATOM     20  C   UNL     1      -2.100   0.267   1.490  0.00  0.00    +0.008 A 
ATOM     21  C   UNL     1      -2.453   0.120   0.161  0.00  0.00    -0.032 A 
ATOM     22  C   UNL     1      -3.330   1.013  -0.427  0.00  0.00    +0.054 A 
BRANCH  18  23
ATOM     23  O   UNL     1      -4.011   3.233   2.383  0.00  0.00    -0.503 OA
ATOM     24  H   UNL     1      -3.402   3.978   2.289  0.00  0.00    +0.292 HD
ENDBRANCH  18  23
BRANCH  17  25
ATOM     25  O   UNL     1      -4.719   2.937  -0.262  0.00  0.00    -0.489 OA
BRANCH  25  27
ATOM     26  C   UNL     1      -5.846   3.476  -2.331  0.00  0.00    +0.048 C 
ATOM     27  C   UNL     1      -4.882   2.524  -1.621  0.00  0.00    +0.226 C 
ENDBRANCH  25  27
ENDBRANCH  17  25
ENDBRANCH   1  21
BRANCH  10  28
ATOM     28  C   UNL     1       3.801   0.017  -0.357  0.00  0.00    -0.040 A 
ATOM     29  C   UNL     1       4.481   0.814   0.545  0.00  0.00    +0.053 A 
ATOM     30  C   UNL     1       5.859   0.938   0.458  0.00  0.00    +0.162 A 
ATOM     31  C   UNL     1       6.553   0.267  -0.543  0.00  0.00    +0.158 A 
ATOM     32  C   UNL     1       5.864  -0.527  -1.447  0.00  0.00    +0.049 A 
ATOM     33  C   UNL     1       4.491  -0.650  -1.352  0.00  0.00    +0.008 A 
BRANCH  30  34
ATOM     34  O   UNL     1       6.530   1.718   1.347  0.00  0.00    -0.491 OA
ATOM     35  C   UNL     1       5.554   2.263   2.238  0.00  0.00    +0.277 C 
ENDBRANCH  30  34
BRANCH  31  36
ATOM     36  O   UNL     1       7.904   0.389  -0.636  0.00  0.00    -0.503 OA
ATOM     37  H   UNL     1       8.077   1.144  -1.215  0.00  0.00    +0.292 HD
ENDBRANCH  31  36
ENDBRANCH  10  28
TORSDOF 7
