REMARK  Name = m247
REMARK  5 active torsions:
REMARK  status: ('A' for Active; 'I' for Inactive)
REMARK    1  A    between atoms: C_1  and  C_2
REMARK    2  A    between atoms: C_3  and  C_4
REMARK    3  A    between atoms: C_6  and  C_7
REMARK    4  A    between atoms: N_20  and  C_21
REMARK    5  A    between atoms: C_21  and  C_22
REMARK                            x       y       z     vdW  Elec       q    Type
REMARK                         _______ _______ _______ _____ _____    ______ ____
ROOT
ATOM      1  C   UNL     1       0.050   1.688  -0.831  0.00  0.00    +0.046 C 
ATOM      2  C   UNL     1       0.142   0.218  -0.514  0.00  0.00    -0.017 A 
ATOM      3  C   UNL     1      -1.017  -0.565  -0.471  0.00  0.00    +0.076 A 
ATOM      4  C   UNL     1      -0.825  -1.931  -0.170  0.00  0.00    +0.116 A 
ATOM      5  N   UNL     1      -1.840  -2.783  -0.103  0.00  0.00    -0.230 NA
ATOM      6  C   UNL     1      -3.069  -2.401  -0.318  0.00  0.00    +0.203 A 
ATOM      7  N   UNL     1      -3.377  -1.115  -0.621  0.00  0.00    -0.290 N 
ATOM      8  S   UNL     1       0.932  -2.058   0.049  0.00  0.00    -0.063 S 
ATOM      9  C   UNL     1      -2.422  -0.169  -0.714  0.00  0.00    +0.263 A 
ATOM     10  O   UNL     1      -2.708   0.984  -0.987  0.00  0.00    -0.267 OA
ATOM     11  C   UNL     1       1.354  -0.351  -0.262  0.00  0.00    +0.082 A 
ENDROOT
BRANCH  11  12
ATOM     12  C   UNL     1       2.679   0.282  -0.249  0.00  0.00    +0.266 A 
ATOM     13  O   UNL     1       2.952   1.575  -0.495  0.00  0.00    -0.332 OA
ATOM     14  N   UNL     1       4.145   1.770  -0.399  0.00  0.00    -0.056 NA
ATOM     15  C   UNL     1       4.767   0.658  -0.098  0.00  0.00    +0.202 A 
ATOM     16  N   UNL     1       3.836  -0.312   0.002  0.00  0.00    -0.187 NA
BRANCH  15  17
ATOM     17  C   UNL     1       6.229   0.494   0.095  0.00  0.00    +0.023 A 
ATOM     18  C   UNL     1       6.756  -0.755   0.419  0.00  0.00    +0.014 A 
ATOM     19  C   UNL     1       8.117  -0.904   0.592  0.00  0.00    +0.039 A 
ATOM     20  C   UNL     1       8.958   0.189   0.457  0.00  0.00    +0.123 A 
ATOM     21  F   UNL     1      10.289   0.040   0.633  0.00  0.00    -0.205 F 
ATOM     22  C   UNL     1       8.438   1.434   0.141  0.00  0.00    +0.039 A 
ATOM     23  C   UNL     1       7.079   1.590  -0.040  0.00  0.00    +0.014 A 
ENDBRANCH  15  17
ENDBRANCH  11  12
BRANCH   7  24
ATOM     24  C   UNL     1      -4.776  -0.747  -0.851  0.00  0.00    +0.222 C 
BRANCH  24  25
ATOM     25  C   UNL     1      -5.407  -0.331   0.453  0.00  0.00    +0.235 C 
ATOM     26  N   UNL     1      -6.699   0.052   0.485  0.00  0.00    -0.300 N 
ATOM     27  C   UNL     1      -7.503   0.075  -0.745  0.00  0.00    +0.108 C 
ATOM     28  C   UNL     1      -8.131   1.459  -0.902  0.00  0.00    +0.019 C 
ATOM     29  C   UNL     1      -8.911   1.810   0.366  0.00  0.00    +0.003 C 
ATOM     30  C   UNL     1      -7.956   1.845   1.562  0.00  0.00    +0.019 C 
ATOM     31  C   UNL     1      -7.328   0.460   1.748  0.00  0.00    +0.108 C 
ATOM     32  O   UNL     1      -4.753  -0.341   1.474  0.00  0.00    -0.274 OA
ENDBRANCH  24  25
ENDBRANCH   7  24
TORSDOF 4
