REMARK  Name = m248
REMARK  9 active torsions:
REMARK  status: ('A' for Active; 'I' for Inactive)
REMARK    1  A    between atoms: C_1  and  N_2
REMARK    2  A    between atoms: N_2  and  C_3
REMARK    3  A    between atoms: C_8  and  C_9
REMARK    4  A    between atoms: C_9  and  N_10
REMARK    5  A    between atoms: C_14  and  C_15
REMARK    6  A    between atoms: C_16  and  C_17
REMARK    7  A    between atoms: N_19  and  C_20
REMARK    8  A    between atoms: C_20  and  C_21
REMARK    9  A    between atoms: C_20  and  C_22
REMARK                            x       y       z     vdW  Elec       q    Type
REMARK                         _______ _______ _______ _____ _____    ______ ____
ROOT
ATOM      1  N   UNL     1      -1.845  -0.100   0.211  0.00  0.00    -0.293 NA
ATOM      2  C   UNL     1      -0.489   0.142  -0.299  0.00  0.00    +0.121 C 
ATOM      3  C   UNL     1       0.437   0.507   0.862  0.00  0.00    +0.164 C 
ATOM      4  O   UNL     1       0.524  -0.590   1.771  0.00  0.00    -0.369 OA
ATOM      5  C   UNL     1      -0.783  -0.801   2.304  0.00  0.00    +0.176 C 
ATOM      6  C   UNL     1      -1.740  -1.200   1.180  0.00  0.00    +0.113 C 
ENDROOT
BRANCH   3   7
ATOM      7  C   UNL     1       1.809   0.826   0.327  0.00  0.00    +0.011 A 
ATOM      8  C   UNL     1       2.242   2.161   0.249  0.00  0.00    +0.014 A 
ATOM      9  C   UNL     1       3.549   2.351  -0.264  0.00  0.00    +0.109 A 
ATOM     10  N   UNL     1       4.093   3.539  -0.393  0.00  0.00    -0.248 NA
ATOM     11  C   UNL     1       3.442   4.632  -0.042  0.00  0.00    +0.112 A 
ATOM     12  C   UNL     1       2.157   4.548   0.475  0.00  0.00    +0.020 A 
ATOM     13  S   UNL     1       4.092   0.696  -0.615  0.00  0.00    -0.064 S 
ATOM     14  C   UNL     1       1.547   3.339   0.630  0.00  0.00    +0.012 A 
ATOM     15  C   UNL     1       2.629  -0.176  -0.086  0.00  0.00    +0.082 A 
BRANCH  15  16
ATOM     16  C   UNL     1       2.373  -1.624  -0.094  0.00  0.00    +0.251 C 
ATOM     17  N   UNL     1       3.317  -2.473  -0.546  0.00  0.00    -0.309 N 
ATOM     18  H   UNL     1       4.166  -2.128  -0.865  0.00  0.00    +0.149 HD
ATOM     19  O   UNL     1       1.308  -2.056   0.306  0.00  0.00    -0.270 OA
BRANCH  17  20
ATOM     20  C   UNL     1       3.062  -3.915  -0.555  0.00  0.00    +0.067 C 
ATOM     21  C   UNL     1       3.400  -4.501   0.818  0.00  0.00    +0.027 C 
ATOM     22  C   UNL     1       3.933  -4.581  -1.622  0.00  0.00    +0.027 C 
ENDBRANCH  17  20
ENDBRANCH  15  16
ENDBRANCH   3   7
BRANCH   1  23
ATOM     23  C   UNL     1      -2.637  -0.606  -0.918  0.00  0.00    +0.123 C 
BRANCH  23  25
ATOM     24  C   UNL     1      -4.860   0.515  -0.552  0.00  0.00    +0.123 A 
ATOM     25  C   UNL     1      -4.093  -0.646  -0.532  0.00  0.00    +0.006 A 
ATOM     26  C   UNL     1      -4.684  -1.835  -0.143  0.00  0.00    +0.010 A 
ATOM     27  C   UNL     1      -6.028  -1.825   0.204  0.00  0.00    +0.020 A 
ATOM     28  C   UNL     1      -6.730  -0.637   0.155  0.00  0.00    +0.113 A 
ATOM     29  N   UNL     1      -6.140   0.483  -0.215  0.00  0.00    -0.240 NA
BRANCH  24  31
ATOM     30  C   UNL     1      -5.080   2.943  -0.966  0.00  0.00    +0.127 C 
ATOM     31  N   UNL     1      -4.278   1.718  -0.936  0.00  0.00    -0.332 N 
ATOM     32  H   UNL     1      -3.341   1.746  -1.185  0.00  0.00    +0.147 HD
ENDBRANCH  24  31
ENDBRANCH  23  25
ENDBRANCH   1  23
TORSDOF 6
