REMARK  Name = m249
REMARK  12 active torsions:
REMARK  status: ('A' for Active; 'I' for Inactive)
REMARK    1  A    between atoms: C_1  and  C_2
REMARK    2  A    between atoms: C_2  and  C_3
REMARK    3  A    between atoms: C_3  and  C_4
REMARK    4  A    between atoms: C_4  and  S_5
REMARK    5  A    between atoms: S_5  and  N_8
REMARK    6  A    between atoms: C_13  and  C_14
REMARK    7  A    between atoms: C_17  and  S_18
REMARK    8  A    between atoms: S_18  and  C_19
REMARK    9  A    between atoms: C_19  and  C_20
REMARK   10  A    between atoms: N_21  and  C_22
REMARK   11  A    between atoms: C_22  and  C_23
REMARK   12  A    between atoms: N_25  and  C_26
REMARK                            x       y       z     vdW  Elec       q    Type
REMARK                         _______ _______ _______ _____ _____    ______ ____
ROOT
ATOM      1  N   UNL     1       2.540   0.704   0.261  0.00  0.00    -0.176 NA
ATOM      2  C   UNL     1       1.147   0.245   0.410  0.00  0.00    +0.148 C 
ATOM      3  C   UNL     1       0.253   1.439   0.200  0.00  0.00    +0.020 A 
ATOM      4  C   UNL     1      -1.141   1.456   0.037  0.00  0.00    +0.134 A 
ATOM      5  N   UNL     1      -1.511   2.715  -0.115  0.00  0.00    -0.168 NA
ATOM      6  N   UNL     1      -0.364   3.519  -0.052  0.00  0.00    -0.270 N 
ATOM      7  C   UNL     1      -0.330   4.978  -0.171  0.00  0.00    +0.172 C 
ATOM      8  C   UNL     1       0.700   2.716   0.137  0.00  0.00    +0.045 A 
ATOM      9  C   UNL     1       2.148   3.121   0.261  0.00  0.00    +0.072 C 
ATOM     10  C   UNL     1       2.931   1.968   0.902  0.00  0.00    +0.115 C 
ENDROOT
BRANCH   4  11
ATOM     11  C   UNL     1      -2.034   0.278   0.035  0.00  0.00    +0.185 A 
ATOM     12  N   UNL     1      -3.401   0.287  -0.118  0.00  0.00    -0.301 N 
ATOM     13  C   UNL     1      -3.788  -1.021  -0.056  0.00  0.00    +0.192 A 
ATOM     14  N   UNL     1      -2.704  -1.739   0.131  0.00  0.00    -0.122 NA
ATOM     15  N   UNL     1      -1.672  -0.975   0.185  0.00  0.00    -0.127 NA
BRANCH  12  16
ATOM     16  C   UNL     1      -4.261   1.457  -0.316  0.00  0.00    +0.122 C 
ATOM     17  C   UNL     1      -4.730   1.981   1.043  0.00  0.00    +0.027 C 
ENDBRANCH  12  16
BRANCH  13  18
ATOM     18  S   UNL     1      -5.435  -1.631  -0.194  0.00  0.00    -0.086 S 
BRANCH  18  19
ATOM     19  C   UNL     1      -5.130  -3.406  -0.005  0.00  0.00    +0.074 C 
ATOM     20  C   UNL     1      -6.456  -4.163  -0.093  0.00  0.00    +0.016 C 
ENDBRANCH  18  19
ENDBRANCH  13  18
ENDBRANCH   4  11
BRANCH   1  21
ATOM     21  S   UNL     1       3.635  -0.178  -0.613  0.00  0.00    +0.032 S 
ATOM     22  O   UNL     1       2.811  -0.891  -1.525  0.00  0.00    -0.158 OA
ATOM     23  O   UNL     1       4.562   0.808  -1.045  0.00  0.00    -0.158 OA
BRANCH  21  24
ATOM     24  C   UNL     1       4.364  -1.280   0.631  0.00  0.00    +0.185 C 
BRANCH  24  25
ATOM     25  C   UNL     1       5.413  -2.175  -0.033  0.00  0.00    +0.024 C 
BRANCH  25  27
ATOM     26  C   UNL     1       7.077  -3.999   0.353  0.00  0.00    +0.004 C 
ATOM     27  C   UNL     1       6.027  -3.104   1.016  0.00  0.00    -0.002 C 
ENDBRANCH  25  27
ENDBRANCH  24  25
ENDBRANCH  21  24
ENDBRANCH   1  21
TORSDOF 8
