REMARK  Name = m250
REMARK  8 active torsions:
REMARK  status: ('A' for Active; 'I' for Inactive)
REMARK    1  A    between atoms: C_1  and  C_2
REMARK    2  A    between atoms: C_2  and  O_3
REMARK    3  A    between atoms: O_3  and  C_4
REMARK    4  A    between atoms: C_4  and  C_6
REMARK    5  A    between atoms: C_8  and  C_9
REMARK    6  A    between atoms: N_15  and  C_16
REMARK    7  A    between atoms: C_16  and  C_17
REMARK    8  A    between atoms: N_31  and  C_32
REMARK                            x       y       z     vdW  Elec       q    Type
REMARK                         _______ _______ _______ _____ _____    ______ ____
ROOT
ATOM      1  C   UNL     1       3.390   0.435  -0.398  0.00  0.00    +0.077 A 
ATOM      2  C   UNL     1       2.396  -0.469   0.012  0.00  0.00    +0.096 A 
ATOM      3  C   UNL     1       1.109  -0.014   0.563  0.00  0.00    +0.267 A 
ATOM      4  N   UNL     1       0.203  -0.950   0.925  0.00  0.00    -0.251 N 
ATOM      5  C   UNL     1       0.468  -2.259   0.787  0.00  0.00    +0.334 A 
ATOM      6  N   UNL     1       1.629  -2.721   0.295  0.00  0.00    -0.281 N 
ATOM      7  C   UNL     1       1.839  -4.166   0.176  0.00  0.00    +0.155 C 
ATOM      8  O   UNL     1      -0.380  -3.061   1.126  0.00  0.00    -0.246 OA
ATOM      9  O   UNL     1       0.866   1.171   0.689  0.00  0.00    -0.267 OA
ATOM     10  C   UNL     1       2.624  -1.850  -0.112  0.00  0.00    +0.151 A 
ATOM     11  N   UNL     1       3.770  -2.293  -0.602  0.00  0.00    -0.234 NA
ATOM     12  C   UNL     1       4.723  -1.470  -0.992  0.00  0.00    +0.041 A 
ATOM     13  C   UNL     1       6.005  -2.040  -1.541  0.00  0.00    +0.065 C 
ATOM     14  C   UNL     1       4.577  -0.095  -0.908  0.00  0.00    +0.039 A 
ENDROOT
BRANCH   1  15
ATOM     15  C   UNL     1       3.188   1.898  -0.289  0.00  0.00    +0.340 C 
ATOM     16  O   UNL     1       2.201   2.413  -0.776  0.00  0.00    -0.245 OA
BRANCH  15  17
ATOM     17  O   UNL     1       4.098   2.658   0.349  0.00  0.00    -0.461 OA
BRANCH  17  19
ATOM     18  C   UNL     1       5.070   4.713   1.223  0.00  0.00    +0.048 C 
ATOM     19  C   UNL     1       3.900   4.092   0.456  0.00  0.00    +0.229 C 
ENDBRANCH  17  19
ENDBRANCH  15  17
ENDBRANCH   1  15
BRANCH   4  20
ATOM     20  C   UNL     1      -1.087  -0.529   1.476  0.00  0.00    +0.226 C 
BRANCH  20  21
ATOM     21  C   UNL     1      -2.081  -0.359   0.356  0.00  0.00    +0.240 C 
ATOM     22  N   UNL     1      -3.313   0.120   0.616  0.00  0.00    -0.270 N 
ATOM     23  C   UNL     1      -4.197   0.419  -0.431  0.00  0.00    +0.039 A 
ATOM     24  C   UNL     1      -5.543   0.638  -0.181  0.00  0.00    -0.026 A 
ATOM     25  C   UNL     1      -6.397   0.917  -1.236  0.00  0.00    +0.005 A 
ATOM     26  C   UNL     1      -5.912   0.974  -2.528  0.00  0.00    +0.000 A 
ATOM     27  C   UNL     1      -4.570   0.753  -2.777  0.00  0.00    +0.002 A 
ATOM     28  C   UNL     1      -6.104   0.587   1.216  0.00  0.00    +0.038 C 
ATOM     29  C   UNL     1      -5.177  -0.209   2.135  0.00  0.00    +0.024 C 
ATOM     30  C   UNL     1      -3.713   0.473  -1.732  0.00  0.00    +0.024 A 
ATOM     31  C   UNL     1      -3.752   0.343   2.001  0.00  0.00    +0.114 C 
ATOM     32  O   UNL     1      -1.771  -0.652  -0.779  0.00  0.00    -0.273 OA
ENDBRANCH  20  21
ENDBRANCH   4  20
TORSDOF 5
