REMARK  Name = m251
REMARK  9 active torsions:
REMARK  status: ('A' for Active; 'I' for Inactive)
REMARK    1  A    between atoms: C_1  and  C_2
REMARK    2  A    between atoms: C_7  and  N_8
REMARK    3  A    between atoms: C_9  and  C_11
REMARK    4  A    between atoms: N_15  and  S_16
REMARK    5  A    between atoms: S_16  and  C_19
REMARK    6  A    between atoms: C_20  and  C_21
REMARK    7  A    between atoms: N_23  and  C_24
REMARK    8  A    between atoms: C_24  and  C_25
REMARK    9  A    between atoms: C_36  and  C_37
REMARK                            x       y       z     vdW  Elec       q    Type
REMARK                         _______ _______ _______ _____ _____    ______ ____
ROOT
ATOM      1  S   UNL     1       0.455  -1.980  -0.229  0.00  0.00    +0.064 S 
ATOM      2  O   UNL     1      -0.074  -2.940   0.676  0.00  0.00    -0.153 OA
ATOM      3  O   UNL     1       1.130  -2.279  -1.443  0.00  0.00    -0.153 OA
ENDROOT
BRANCH   1   4
ATOM      4  C   UNL     1      -0.901  -0.948  -0.676  0.00  0.00    +0.149 A 
ATOM      5  C   UNL     1      -2.038  -0.772   0.037  0.00  0.00    +0.063 A 
ATOM      6  C   UNL     1      -2.367  -1.420   1.357  0.00  0.00    +0.067 C 
ATOM      7  N   UNL     1      -2.820   0.094  -0.641  0.00  0.00    -0.258 N 
ATOM      8  N   UNL     1      -2.145   0.455  -1.815  0.00  0.00    -0.174 NA
ATOM      9  C   UNL     1      -0.996  -0.169  -1.834  0.00  0.00    +0.087 A 
ATOM     10  C   UNL     1       0.047  -0.068  -2.918  0.00  0.00    +0.069 C 
BRANCH   7  11
ATOM     11  C   UNL     1      -4.143   0.567  -0.227  0.00  0.00    +0.239 C 
BRANCH  11  12
ATOM     12  C   UNL     1      -5.200  -0.360  -0.768  0.00  0.00    +0.241 C 
ATOM     13  N   UNL     1      -6.502  -0.121  -0.512  0.00  0.00    -0.269 N 
ATOM     14  C   UNL     1      -6.985   0.950   0.247  0.00  0.00    +0.040 A 
ATOM     15  C   UNL     1      -8.368   0.932   0.330  0.00  0.00    -0.024 A 
ATOM     16  C   UNL     1      -9.040   1.913   1.035  0.00  0.00    +0.005 A 
ATOM     17  C   UNL     1      -8.336   2.925   1.660  0.00  0.00    +0.000 A 
ATOM     18  C   UNL     1      -6.956   2.955   1.577  0.00  0.00    +0.002 A 
ATOM     19  C   UNL     1      -8.882  -0.267  -0.434  0.00  0.00    +0.056 C 
ATOM     20  C   UNL     1      -6.281   1.979   0.875  0.00  0.00    +0.024 A 
ATOM     21  C   UNL     1      -7.616  -0.947  -0.982  0.00  0.00    +0.118 C 
ATOM     22  O   UNL     1      -4.880  -1.321  -1.435  0.00  0.00    -0.273 OA
ENDBRANCH  11  12
ENDBRANCH   7  11
ENDBRANCH   1   4
BRANCH   1  25
ATOM     23  C   UNL     1       3.918  -0.682   0.654  0.00  0.00    +0.091 C 
ATOM     24  C   UNL     1       2.586  -0.310  -0.003  0.00  0.00    +0.122 C 
ATOM     25  N   UNL     1       1.507  -1.059   0.657  0.00  0.00    -0.176 NA
ATOM     26  C   UNL     1       1.381  -0.974   2.119  0.00  0.00    +0.109 C 
ATOM     27  C   UNL     1       2.727  -1.338   2.752  0.00  0.00    +0.018 C 
ATOM     28  C   UNL     1       3.822  -0.446   2.163  0.00  0.00    +0.015 C 
BRANCH  23  31
ATOM     29  N   UNL     1       6.285   0.023   0.515  0.00  0.00    -0.270 N 
ATOM     30  H   UNL     1       6.489  -0.636   1.197  0.00  0.00    +0.156 HD
ATOM     31  C   UNL     1       5.018   0.173   0.080  0.00  0.00    +0.223 C 
ATOM     32  O   UNL     1       4.763   0.997  -0.773  0.00  0.00    -0.275 OA
BRANCH  29  35
ATOM     33  C   UNL     1       8.924  -0.356   1.509  0.00  0.00    +0.047 C 
ATOM     34  C   UNL     1       8.605   0.662   0.445  0.00  0.00    -0.010 A 
ATOM     35  C   UNL     1       7.303   0.814  -0.016  0.00  0.00    +0.128 A 
ATOM     36  N   UNL     1       7.018   1.711  -0.947  0.00  0.00    -0.240 NA
ATOM     37  C   UNL     1       7.950   2.480  -1.476  0.00  0.00    +0.113 A 
ATOM     38  C   UNL     1       9.266   2.378  -1.069  0.00  0.00    +0.020 A 
ATOM     39  C   UNL     1       9.606   1.454  -0.090  0.00  0.00    +0.008 A 
ENDBRANCH  29  35
ENDBRANCH  23  31
ENDBRANCH   1  25
TORSDOF 6
