REMARK  Name = m252
REMARK  8 active torsions:
REMARK  status: ('A' for Active; 'I' for Inactive)
REMARK    1  A    between atoms: C_1  and  N_2
REMARK    2  A    between atoms: C_3  and  C_5
REMARK    3  A    between atoms: C_13  and  C_14
REMARK    4  A    between atoms: C_17  and  C_19
REMARK    5  A    between atoms: C_19  and  C_20
REMARK    6  A    between atoms: C_22  and  C_23
REMARK    7  A    between atoms: C_23  and  C_24
REMARK    8  A    between atoms: C_23  and  C_25
REMARK                            x       y       z     vdW  Elec       q    Type
REMARK                         _______ _______ _______ _____ _____    ______ ____
ROOT
ATOM      1  C   UNL     1       1.534   0.163  -0.859  0.00  0.00    +0.167 C 
ATOM      2  O   UNL     1       1.842   1.308  -1.653  0.00  0.00    -0.369 OA
ATOM      3  C   UNL     1       0.664   1.668  -2.373  0.00  0.00    +0.179 C 
ATOM      4  C   UNL     1      -0.391   2.201  -1.398  0.00  0.00    +0.136 C 
ATOM      5  N   UNL     1      -0.624   1.175  -0.367  0.00  0.00    -0.296 N 
ATOM      6  C   UNL     1      -1.872   0.816  -0.007  0.00  0.00    +0.223 C 
ATOM      7  O   UNL     1      -2.037  -0.032   0.845  0.00  0.00    -0.275 OA
ATOM      8  C   UNL     1       0.559   0.557   0.255  0.00  0.00    +0.144 C 
ENDROOT
BRANCH   1  10
ATOM      9  C   UNL     1       3.702   0.465   0.315  0.00  0.00    +0.082 A 
ATOM     10  C   UNL     1       2.800  -0.381  -0.250  0.00  0.00    +0.011 A 
ATOM     11  C   UNL     1       3.054  -1.763  -0.269  0.00  0.00    +0.014 A 
ATOM     12  C   UNL     1       4.270  -2.170   0.334  0.00  0.00    +0.109 A 
ATOM     13  N   UNL     1       4.643  -3.428   0.397  0.00  0.00    -0.248 NA
ATOM     14  C   UNL     1       3.893  -4.390  -0.105  0.00  0.00    +0.112 A 
ATOM     15  C   UNL     1       2.684  -4.091  -0.717  0.00  0.00    +0.020 A 
ATOM     16  C   UNL     1       2.251  -2.801  -0.809  0.00  0.00    +0.012 A 
ATOM     17  S   UNL     1       4.986  -0.638   0.879  0.00  0.00    -0.064 S 
BRANCH   9  21
ATOM     18  C   UNL     1       4.565   4.061   1.160  0.00  0.00    +0.128 C 
ATOM     19  N   UNL     1       4.633   2.602   1.039  0.00  0.00    -0.314 N 
ATOM     20  H   UNL     1       5.397   2.121   1.394  0.00  0.00    +0.149 HD
ATOM     21  C   UNL     1       3.634   1.929   0.436  0.00  0.00    +0.251 C 
ATOM     22  O   UNL     1       2.676   2.531  -0.009  0.00  0.00    -0.270 OA
ENDBRANCH   9  21
ENDBRANCH   1  10
BRANCH   6  23
ATOM     23  C   UNL     1      -3.063   1.467  -0.663  0.00  0.00    +0.171 C 
BRANCH  23  24
ATOM     24  C   UNL     1      -4.331   0.892  -0.086  0.00  0.00    +0.134 A 
ATOM     25  N   UNL     1      -4.941   1.299   1.040  0.00  0.00    -0.262 N 
ATOM     26  H   UNL     1      -4.656   2.014   1.630  0.00  0.00    +0.190 HD
ATOM     27  N   UNL     1      -6.080   0.490   1.188  0.00  0.00    -0.157 NA
ATOM     28  C   UNL     1      -6.086  -0.340   0.178  0.00  0.00    +0.154 A 
ATOM     29  N   UNL     1      -5.026  -0.094  -0.591  0.00  0.00    -0.215 NA
BRANCH  28  30
ATOM     30  C   UNL     1      -7.124  -1.404  -0.074  0.00  0.00    +0.053 C 
ATOM     31  C   UNL     1      -8.498  -0.749  -0.229  0.00  0.00    +0.015 C 
ATOM     32  C   UNL     1      -7.152  -2.378   1.105  0.00  0.00    +0.015 C 
ENDBRANCH  28  30
ENDBRANCH  23  24
ENDBRANCH   6  23
TORSDOF 5
