REMARK  Name = m253
REMARK  8 active torsions:
REMARK  status: ('A' for Active; 'I' for Inactive)
REMARK    1  A    between atoms: C_1  and  O_2
REMARK    2  A    between atoms: O_2  and  C_3
REMARK    3  A    between atoms: C_3  and  C_4
REMARK    4  A    between atoms: C_4  and  N_5
REMARK    5  A    between atoms: C_6  and  C_8
REMARK    6  A    between atoms: C_16  and  C_17
REMARK    7  A    between atoms: C_20  and  C_22
REMARK    8  A    between atoms: N_26  and  C_27
REMARK                            x       y       z     vdW  Elec       q    Type
REMARK                         _______ _______ _______ _____ _____    ______ ____
ROOT
ATOM      1  C   UNL     1       2.093   0.369  -0.030  0.00  0.00    +0.082 A 
ATOM      2  C   UNL     1       1.136   1.274   0.304  0.00  0.00    +0.011 A 
ATOM      3  C   UNL     1       1.408   2.649   0.207  0.00  0.00    +0.014 A 
ATOM      4  C   UNL     1       2.703   2.984  -0.259  0.00  0.00    +0.109 A 
ATOM      5  N   UNL     1       3.103   4.227  -0.407  0.00  0.00    -0.248 NA
ATOM      6  C   UNL     1       2.306   5.240  -0.125  0.00  0.00    +0.112 A 
ATOM      7  C   UNL     1       1.018   5.013   0.339  0.00  0.00    +0.020 A 
ATOM      8  C   UNL     1       0.555   3.742   0.510  0.00  0.00    +0.012 A 
ATOM      9  S   UNL     1       3.462   1.400  -0.525  0.00  0.00    -0.064 S 
ENDROOT
BRANCH   2  10
ATOM     10  C   UNL     1      -0.213   0.803   0.785  0.00  0.00    +0.167 C 
ATOM     11  O   UNL     1      -0.039  -0.247   1.735  0.00  0.00    -0.369 OA
ATOM     12  C   UNL     1      -1.312  -0.523   2.316  0.00  0.00    +0.179 C 
ATOM     13  C   UNL     1      -2.229  -1.160   1.267  0.00  0.00    +0.136 C 
ATOM     14  N   UNL     1      -2.298  -0.255   0.107  0.00  0.00    -0.291 N 
ATOM     15  C   UNL     1      -3.477   0.064  -0.464  0.00  0.00    +0.265 C 
ATOM     16  O   UNL     1      -3.574   1.073  -1.135  0.00  0.00    -0.268 OA
ATOM     17  C   UNL     1      -1.028   0.288  -0.406  0.00  0.00    +0.144 C 
BRANCH  15  18
ATOM     18  C   UNL     1      -4.646  -0.809  -0.274  0.00  0.00    +0.123 A 
ATOM     19  N   UNL     1      -5.931  -0.555  -0.661  0.00  0.00    -0.262 N 
ATOM     20  C   UNL     1      -6.380   0.656  -1.354  0.00  0.00    +0.173 C 
ATOM     21  N   UNL     1      -6.683  -1.543  -0.335  0.00  0.00    -0.179 NA
ATOM     22  C   UNL     1      -5.994  -2.475   0.272  0.00  0.00    +0.135 A 
ATOM     23  C   UNL     1      -4.665  -2.050   0.339  0.00  0.00    +0.054 A 
ENDBRANCH  15  18
ENDBRANCH   2  10
BRANCH   1  26
ATOM     24  N   UNL     1       3.080  -1.837  -0.377  0.00  0.00    -0.309 N 
ATOM     25  H   UNL     1       3.894  -1.400  -0.670  0.00  0.00    +0.149 HD
ATOM     26  C   UNL     1       2.018  -1.099   0.002  0.00  0.00    +0.251 C 
ATOM     27  O   UNL     1       0.996  -1.647   0.370  0.00  0.00    -0.270 OA
BRANCH  24  28
ATOM     28  C   UNL     1       3.004  -3.300  -0.344  0.00  0.00    +0.132 C 
BRANCH  28  29
ATOM     29  C   UNL     1       4.334  -3.889  -0.820  0.00  0.00    +0.178 C 
BRANCH  29  31
ATOM     30  C   UNL     1       6.576  -4.120  -0.390  0.00  0.00    +0.194 C 
ATOM     31  O   UNL     1       5.366  -3.544   0.106  0.00  0.00    -0.381 OA
ENDBRANCH  29  31
ENDBRANCH  28  29
ENDBRANCH  24  28
ENDBRANCH   1  26
TORSDOF 6
