REMARK  Name = m254
REMARK  9 active torsions:
REMARK  status: ('A' for Active; 'I' for Inactive)
REMARK    1  A    between atoms: C_1  and  C_2
REMARK    2  A    between atoms: C_2  and  C_3
REMARK    3  A    between atoms: C_3  and  C_4
REMARK    4  A    between atoms: C_3  and  N_5
REMARK    5  A    between atoms: C_6  and  C_8
REMARK    6  A    between atoms: C_8  and  N_9
REMARK    7  A    between atoms: C_14  and  C_15
REMARK    8  A    between atoms: C_17  and  C_18
REMARK    9  A    between atoms: C_26  and  C_27
REMARK                            x       y       z     vdW  Elec       q    Type
REMARK                         _______ _______ _______ _____ _____    ______ ____
ROOT
ATOM      1  N   UNL     1       3.170  -1.021   0.895  0.00  0.00    -0.290 N 
ATOM      2  C   UNL     1       2.192  -0.097   0.968  0.00  0.00    +0.263 A 
ATOM      3  O   UNL     1       2.440   1.050   1.297  0.00  0.00    -0.267 OA
ATOM      4  C   UNL     1       0.810  -0.509   0.635  0.00  0.00    +0.076 A 
ATOM      5  C   UNL     1       0.662  -1.867   0.277  0.00  0.00    +0.116 A 
ATOM      6  S   UNL     1      -1.077  -2.017  -0.044  0.00  0.00    -0.063 S 
ATOM      7  C   UNL     1      -1.548  -0.329   0.293  0.00  0.00    +0.082 A 
ATOM      8  N   UNL     1       1.696  -2.699   0.242  0.00  0.00    -0.230 NA
ATOM      9  C   UNL     1      -0.363   0.253   0.630  0.00  0.00    -0.017 A 
ATOM     10  C   UNL     1      -0.316   1.714   0.996  0.00  0.00    +0.046 C 
ATOM     11  C   UNL     1       2.904  -2.302   0.538  0.00  0.00    +0.203 A 
ENDROOT
BRANCH   7  12
ATOM     12  C   UNL     1      -2.882   0.281   0.225  0.00  0.00    +0.266 A 
ATOM     13  O   UNL     1      -3.193   1.560   0.495  0.00  0.00    -0.332 OA
ATOM     14  N   UNL     1      -4.383   1.737   0.338  0.00  0.00    -0.056 NA
ATOM     15  C   UNL     1      -4.965   0.624  -0.031  0.00  0.00    +0.202 A 
ATOM     16  N   UNL     1      -4.011  -0.325  -0.108  0.00  0.00    -0.187 NA
BRANCH  15  17
ATOM     17  C   UNL     1      -6.412   0.441  -0.311  0.00  0.00    +0.025 A 
ATOM     18  C   UNL     1      -6.915  -0.801  -0.704  0.00  0.00    +0.031 A 
ATOM     19  C   UNL     1      -8.267  -0.930  -0.950  0.00  0.00    +0.111 A 
ATOM     20  N   UNL     1      -9.078   0.103  -0.828  0.00  0.00    -0.263 NA
ATOM     21  C   UNL     1      -8.643   1.295  -0.466  0.00  0.00    +0.111 A 
ATOM     22  C   UNL     1      -7.306   1.508  -0.195  0.00  0.00    +0.031 A 
ENDBRANCH  15  17
ENDBRANCH   7  12
BRANCH   1  23
ATOM     23  C   UNL     1       4.546  -0.636   1.215  0.00  0.00    +0.221 C 
BRANCH  23  26
ATOM     24  N   UNL     1       6.526   0.236   0.016  0.00  0.00    -0.311 N 
ATOM     25  H   UNL     1       7.002   0.228   0.860  0.00  0.00    +0.149 HD
ATOM     26  C   UNL     1       5.242  -0.170  -0.038  0.00  0.00    +0.233 C 
ATOM     27  O   UNL     1       4.646  -0.160  -1.094  0.00  0.00    -0.274 OA
BRANCH  24  28
ATOM     28  C   UNL     1       7.202   0.690  -1.203  0.00  0.00    +0.070 C 
ATOM     29  C   UNL     1       7.768  -0.518  -1.952  0.00  0.00    +0.028 C 
BRANCH  28  31
ATOM     30  C   UNL     1       7.764   2.905  -0.193  0.00  0.00    +0.005 C 
ATOM     31  C   UNL     1       8.342   1.639  -0.830  0.00  0.00    +0.018 C 
ENDBRANCH  28  31
ENDBRANCH  24  28
ENDBRANCH  23  26
ENDBRANCH   1  23
TORSDOF 6
