REMARK  Name = m255
REMARK  5 active torsions:
REMARK  status: ('A' for Active; 'I' for Inactive)
REMARK    1  A    between atoms: C_1  and  N_2
REMARK    2  A    between atoms: N_2  and  C_3
REMARK    3  A    between atoms: N_2  and  C_15
REMARK    4  A    between atoms: C_3  and  C_4
REMARK    5  A    between atoms: C_7  and  C_8
REMARK                            x       y       z     vdW  Elec       q    Type
REMARK                         _______ _______ _______ _____ _____    ______ ____
ROOT
ATOM      1  C   UNL     1       0.240   3.325  -0.269  0.00  0.00    +0.105 C 
ATOM      2  N   UNL     1      -0.150   1.913  -0.157  0.00  0.00    -0.294 NA
ENDROOT
BRANCH   2   3
ATOM      3  C   UNL     1      -1.604   1.892   0.050  0.00  0.00    +0.074 C 
ATOM      4  C   UNL     1      -2.103   0.446   0.020  0.00  0.00    +0.125 C 
ATOM      5  N   UNL     1      -3.550   0.415   0.257  0.00  0.00    -0.312 N 
ATOM      6  C   UNL     1      -3.935  -0.920   0.210  0.00  0.00    +0.144 A 
ATOM      7  N   UNL     1      -3.038  -1.863  -0.037  0.00  0.00    -0.134 NA
ATOM      8  N   UNL     1      -3.351  -3.107  -0.083  0.00  0.00    -0.156 NA
ATOM      9  C   UNL     1      -4.586  -3.529   0.100  0.00  0.00    +0.135 A 
ATOM     10  C   UNL     1      -5.600  -2.617   0.358  0.00  0.00    +0.025 A 
ATOM     11  C   UNL     1      -5.269  -1.273   0.416  0.00  0.00    +0.047 A 
ATOM     12  C   UNL     1      -4.193   1.080  -0.882  0.00  0.00    +0.106 C 
ATOM     13  C   UNL     1      -3.809   2.561  -0.901  0.00  0.00    +0.020 C 
ATOM     14  C   UNL     1      -2.291   2.685  -1.065  0.00  0.00    +0.022 C 
ENDBRANCH   2   3
BRANCH   2  15
ATOM     15  C   UNL     1       0.460   1.404   1.079  0.00  0.00    +0.158 C 
BRANCH  15  16
ATOM     16  C   UNL     1       1.933   1.179   0.857  0.00  0.00    +0.120 A 
ATOM     17  O   UNL     1       2.494   0.036   0.427  0.00  0.00    -0.457 OA
ATOM     18  C   UNL     1       3.829   0.197   0.342  0.00  0.00    +0.153 A 
ATOM     19  C   UNL     1       4.128   1.466   0.734  0.00  0.00    +0.052 A 
ATOM     20  C   UNL     1       2.907   2.087   1.062  0.00  0.00    +0.046 A 
BRANCH  18  21
ATOM     21  C   UNL     1       4.797  -0.824  -0.093  0.00  0.00    +0.101 A 
ATOM     22  N   UNL     1       5.893  -0.620  -0.880  0.00  0.00    -0.274 N 
ATOM     23  H   UNL     1       6.179   0.229  -1.254  0.00  0.00    +0.189 HD
ATOM     24  N   UNL     1       6.536  -1.853  -1.046  0.00  0.00    -0.182 NA
ATOM     25  C   UNL     1       5.862  -2.770  -0.399  0.00  0.00    +0.135 A 
ATOM     26  C   UNL     1       4.763  -2.169   0.213  0.00  0.00    +0.052 A 
ENDBRANCH  18  21
ENDBRANCH  15  16
ENDBRANCH   2  15
TORSDOF 4
