REMARK  Name = m256
REMARK  7 active torsions:
REMARK  status: ('A' for Active; 'I' for Inactive)
REMARK    1  A    between atoms: N_1  and  S_2
REMARK    2  A    between atoms: S_2  and  C_5
REMARK    3  A    between atoms: C_8  and  C_9
REMARK    4  A    between atoms: C_9  and  C_10
REMARK    5  A    between atoms: C_10  and  N_11
REMARK    6  A    between atoms: C_12  and  C_14
REMARK    7  A    between atoms: C_19  and  C_20
REMARK                            x       y       z     vdW  Elec       q    Type
REMARK                         _______ _______ _______ _____ _____    ______ ____
ROOT
ATOM      1  N   UNL     1      -0.028  -2.085  -0.032  0.00  0.00    -0.311 N 
ATOM      2  H   UNL     1       0.064  -3.047  -0.107  0.00  0.00    +0.149 HD
ATOM      3  C   UNL     1      -1.253  -1.530   0.053  0.00  0.00    +0.248 C 
ATOM      4  O   UNL     1      -1.369  -0.323   0.147  0.00  0.00    -0.270 OA
ENDROOT
BRANCH   3   5
ATOM      5  C   UNL     1      -2.452  -2.385   0.032  0.00  0.00    +0.082 A 
ATOM      6  C   UNL     1      -3.847  -1.944   0.120  0.00  0.00    +0.105 A 
ATOM      7  N   UNL     1      -4.595  -3.022   0.062  0.00  0.00    -0.173 NA
ATOM      8  N   UNL     1      -3.770  -4.145  -0.051  0.00  0.00    -0.283 N 
ATOM      9  H   UNL     1      -4.079  -5.062  -0.108  0.00  0.00    +0.188 HD
ATOM     10  C   UNL     1      -2.485  -3.761  -0.069  0.00  0.00    +0.118 A 
BRANCH   6  11
ATOM     11  C   UNL     1      -4.324  -0.545   0.243  0.00  0.00    +0.007 A 
ATOM     12  C   UNL     1      -5.446  -0.124  -0.463  0.00  0.00    +0.059 A 
ATOM     13  C   UNL     1      -5.903   1.185  -0.348  0.00  0.00    +0.163 A 
ATOM     14  O   UNL     1      -6.999   1.514  -1.081  0.00  0.00    -0.485 OA
ATOM     15  C   UNL     1      -7.577   2.697  -0.540  0.00  0.00    +0.270 C 
ATOM     16  C   UNL     1      -6.471   3.752  -0.409  0.00  0.00    +0.270 C 
ATOM     17  O   UNL     1      -5.614   3.366   0.660  0.00  0.00    -0.485 OA
ATOM     18  C   UNL     1      -5.231   2.076   0.474  0.00  0.00    +0.162 A 
ATOM     19  C   UNL     1      -4.101   1.652   1.174  0.00  0.00    +0.050 A 
ATOM     20  C   UNL     1      -3.648   0.357   1.063  0.00  0.00    +0.014 A 
ENDBRANCH   6  11
ENDBRANCH   3   5
BRANCH   1  21
ATOM     21  C   UNL     1       1.165  -1.234  -0.011  0.00  0.00    +0.109 C 
BRANCH  21  22
ATOM     22  C   UNL     1       2.416  -2.107  -0.120  0.00  0.00    +0.054 C 
BRANCH  22  26
ATOM     23  C   UNL     1       5.894   0.372  -0.059  0.00  0.00    +0.105 A 
ATOM     24  C   UNL     1       5.286   0.063  -1.262  0.00  0.00    +0.029 A 
ATOM     25  C   UNL     1       4.163  -0.742  -1.282  0.00  0.00    +0.005 A 
ATOM     26  C   UNL     1       3.643  -1.232  -0.098  0.00  0.00    -0.046 A 
ATOM     27  C   UNL     1       4.248  -0.920   1.105  0.00  0.00    +0.005 A 
ATOM     28  C   UNL     1       5.373  -0.118   1.124  0.00  0.00    +0.029 A 
BRANCH  23  29
ATOM     29  S   UNL     1       7.329   1.394  -0.034  0.00  0.00    +0.056 S 
ATOM     30  O   UNL     1       7.295   2.138  -1.244  0.00  0.00    -0.153 OA
ATOM     31  O   UNL     1       7.383   1.952   1.272  0.00  0.00    -0.153 OA
BRANCH  29  32
ATOM     32  N   UNL     1       8.648   0.400  -0.154  0.00  0.00    -0.204 NA
ATOM     33  H   UNL     1       8.753  -0.175  -0.928  0.00  0.00    +0.144 HD
ATOM     34  H   UNL     1       9.313   0.390   0.552  0.00  0.00    +0.144 HD
ENDBRANCH  29  32
ENDBRANCH  23  29
ENDBRANCH  22  26
ENDBRANCH  21  22
ENDBRANCH   1  21
TORSDOF 7
