REMARK  Name = m257
REMARK  9 active torsions:
REMARK  status: ('A' for Active; 'I' for Inactive)
REMARK    1  A    between atoms: C_1  and  C_2
REMARK    2  A    between atoms: C_2  and  C_3
REMARK    3  A    between atoms: C_2  and  C_4
REMARK    4  A    between atoms: C_4  and  C_5
REMARK    5  A    between atoms: C_10  and  S_11
REMARK    6  A    between atoms: S_11  and  C_12
REMARK    7  A    between atoms: C_12  and  C_13
REMARK    8  A    between atoms: C_31  and  C_32
REMARK    9  A    between atoms: C_31  and  C_33
REMARK                            x       y       z     vdW  Elec       q    Type
REMARK                         _______ _______ _______ _____ _____    ______ ____
ROOT
ATOM      1  C   UNL     1       4.647   1.379  -0.456  0.00  0.00    +0.048 A 
ATOM      2  C   UNL     1       4.803   0.026  -0.189  0.00  0.00    +0.003 A 
ATOM      3  C   UNL     1       6.190  -0.553  -0.089  0.00  0.00    +0.197 C 
ATOM      4  O   UNL     1       6.172  -1.770   0.653  0.00  0.00    -0.369 OA
ATOM      5  C   UNL     1       5.278  -2.662  -0.014  0.00  0.00    +0.068 C 
ATOM      6  C   UNL     1       3.837  -2.236   0.284  0.00  0.00    +0.070 C 
ATOM      7  C   UNL     1       5.509  -4.089   0.488  0.00  0.00    +0.041 C 
ATOM      8  C   UNL     1       5.525  -2.603  -1.523  0.00  0.00    +0.041 C 
ATOM      9  C   UNL     1       3.694  -0.767  -0.010  0.00  0.00    -0.026 A 
ATOM     10  C   UNL     1       2.407  -0.198  -0.109  0.00  0.00    +0.037 A 
ATOM     11  C   UNL     1       2.357   1.180  -0.391  0.00  0.00    +0.111 A 
ATOM     12  S   UNL     1       0.622   1.551  -0.450  0.00  0.00    -0.064 S 
ATOM     13  C   UNL     1      -0.026  -0.062  -0.110  0.00  0.00    +0.072 A 
ATOM     14  C   UNL     1      -1.305  -0.590   0.011  0.00  0.00    +0.115 A 
ATOM     15  N   UNL     1      -1.430  -1.889   0.282  0.00  0.00    -0.228 NA
ATOM     16  C   UNL     1      -0.353  -2.639   0.427  0.00  0.00    +0.223 A 
ATOM     17  N   UNL     1       0.867  -2.175   0.319  0.00  0.00    -0.234 NA
ATOM     18  C   UNL     1       1.105  -0.872   0.046  0.00  0.00    +0.092 A 
ATOM     19  N   UNL     1       3.442   1.907  -0.551  0.00  0.00    -0.244 NA
ENDROOT
BRANCH   1  20
ATOM     20  C   UNL     1       5.862   2.250  -0.646  0.00  0.00    +0.058 C 
BRANCH  20  22
ATOM     21  C   UNL     1       7.592   3.614   0.532  0.00  0.00    +0.007 C 
ATOM     22  C   UNL     1       6.288   2.832   0.703  0.00  0.00    -0.011 C 
ATOM     23  C   UNL     1       5.196   3.769   1.222  0.00  0.00    +0.007 C 
ENDBRANCH  20  22
ENDBRANCH   1  20
BRANCH  14  24
ATOM     24  S   UNL     1      -2.727   0.432  -0.188  0.00  0.00    -0.095 S 
BRANCH  24  25
ATOM     25  C   UNL     1      -4.033  -0.791   0.079  0.00  0.00    +0.172 C 
BRANCH  25  26
ATOM     26  C   UNL     1      -5.379  -0.125  -0.047  0.00  0.00    +0.228 C 
ATOM     27  N   UNL     1      -6.506  -0.846   0.113  0.00  0.00    -0.270 N 
ATOM     28  H   UNL     1      -6.454  -1.807   0.234  0.00  0.00    +0.156 HD
ATOM     29  C   UNL     1      -7.747  -0.212   0.105  0.00  0.00    +0.125 A 
ATOM     30  N   UNL     1      -7.820   1.082  -0.164  0.00  0.00    -0.240 NA
ATOM     31  C   UNL     1      -8.975   1.720  -0.188  0.00  0.00    +0.113 A 
ATOM     32  C   UNL     1     -10.156   1.057   0.080  0.00  0.00    +0.020 A 
ATOM     33  C   UNL     1     -10.122  -0.300   0.372  0.00  0.00    +0.005 A 
ATOM     34  C   UNL     1      -8.897  -0.942   0.384  0.00  0.00    +0.044 A 
ATOM     35  O   UNL     1      -5.448   1.061  -0.293  0.00  0.00    -0.275 OA
ENDBRANCH  25  26
ENDBRANCH  24  25
ENDBRANCH  14  24
TORSDOF 5
