REMARK  Name = m258
REMARK  8 active torsions:
REMARK  status: ('A' for Active; 'I' for Inactive)
REMARK    1  A    between atoms: C_1  and  C_2
REMARK    2  A    between atoms: C_11  and  C_12
REMARK    3  A    between atoms: C_17  and  C_18
REMARK    4  A    between atoms: C_21  and  O_22
REMARK    5  A    between atoms: O_22  and  C_23
REMARK    6  A    between atoms: C_23  and  C_24
REMARK    7  A    between atoms: C_24  and  C_25
REMARK    8  A    between atoms: C_24  and  C_26
REMARK                            x       y       z     vdW  Elec       q    Type
REMARK                         _______ _______ _______ _____ _____    ______ ____
ROOT
ATOM      1  C   UNL     1       1.418   1.254  -2.129  0.00  0.00    +0.068 C 
ATOM      2  C   UNL     1       0.144   0.751  -1.502  0.00  0.00    +0.066 A 
ATOM      3  C   UNL     1      -0.055  -0.514  -0.969  0.00  0.00    +0.023 A 
ATOM      4  C   UNL     1       0.894  -1.682  -0.880  0.00  0.00    +0.063 C 
ATOM      5  C   UNL     1       0.511  -2.521   0.344  0.00  0.00    +0.109 C 
ATOM      6  C   UNL     1      -0.977  -2.710   0.429  0.00  0.00    +0.219 C 
ATOM      7  N   UNL     1      -1.845  -1.726   0.109  0.00  0.00    -0.270 N 
ATOM      8  H   UNL     1      -2.793  -1.816   0.296  0.00  0.00    +0.156 HD
ATOM      9  O   UNL     1      -1.413  -3.782   0.793  0.00  0.00    -0.275 OA
ATOM     10  C   UNL     1      -1.338  -0.575  -0.491  0.00  0.00    +0.134 A 
ATOM     11  N   UNL     1      -1.922   0.616  -0.740  0.00  0.00    -0.198 N 
ATOM     12  C   UNL     1      -3.236   0.973  -0.425  0.00  0.00    +0.176 A 
ATOM     13  N   UNL     1      -4.020   0.101   0.164  0.00  0.00    -0.144 NA
ATOM     14  N   UNL     1      -5.335   0.438   0.492  0.00  0.00    -0.195 N 
ATOM     15  C   UNL     1      -5.821   1.686   0.189  0.00  0.00    +0.178 A 
ATOM     16  N   UNL     1      -7.077   1.719   0.604  0.00  0.00    -0.128 NA
ATOM     17  N   UNL     1      -7.379   0.585   1.133  0.00  0.00    -0.132 NA
ATOM     18  C   UNL     1      -4.981   2.618  -0.448  0.00  0.00    +0.054 A 
ATOM     19  C   UNL     1      -6.350  -0.224   1.087  0.00  0.00    +0.152 A 
ATOM     20  C   UNL     1      -6.308  -1.639   1.604  0.00  0.00    +0.090 C 
ATOM     21  C   UNL     1      -3.704   2.260  -0.749  0.00  0.00    +0.054 A 
ATOM     22  N   UNL     1      -0.970   1.433  -1.372  0.00  0.00    -0.168 NA
ENDROOT
BRANCH   4  23
ATOM     23  C   UNL     1       2.306  -1.178  -0.729  0.00  0.00    -0.039 A 
ATOM     24  C   UNL     1       2.644  -0.387   0.354  0.00  0.00    +0.008 A 
ATOM     25  C   UNL     1       3.940   0.072   0.498  0.00  0.00    +0.046 A 
ATOM     26  C   UNL     1       4.899  -0.253  -0.451  0.00  0.00    +0.121 A 
ATOM     27  C   UNL     1       4.556  -1.043  -1.539  0.00  0.00    +0.046 A 
ATOM     28  C   UNL     1       3.260  -1.503  -1.675  0.00  0.00    +0.008 A 
BRANCH  26  29
ATOM     29  O   UNL     1       6.172   0.201  -0.314  0.00  0.00    -0.492 OA
BRANCH  29  30
ATOM     30  C   UNL     1       6.208   0.974   0.887  0.00  0.00    +0.232 C 
BRANCH  30  31
ATOM     31  C   UNL     1       7.622   1.518   1.101  0.00  0.00    +0.020 C 
ATOM     32  C   UNL     1       8.586   0.354   1.339  0.00  0.00    +0.010 C 
ATOM     33  C   UNL     1       7.633   2.446   2.318  0.00  0.00    +0.010 C 
ENDBRANCH  30  31
ENDBRANCH  29  30
ENDBRANCH  26  29
ENDBRANCH   4  23
TORSDOF 4
