REMARK  Name = m259
REMARK  8 active torsions:
REMARK  status: ('A' for Active; 'I' for Inactive)
REMARK    1  A    between atoms: C_1  and  C_2
REMARK    2  A    between atoms: C_8  and  N_9
REMARK    3  A    between atoms: C_10  and  C_12
REMARK    4  A    between atoms: C_12  and  N_13
REMARK    5  A    between atoms: C_18  and  C_19
REMARK    6  A    between atoms: C_21  and  C_22
REMARK    7  A    between atoms: C_27  and  C_28
REMARK    8  A    between atoms: C_31  and  C_32
REMARK                            x       y       z     vdW  Elec       q    Type
REMARK                         _______ _______ _______ _____ _____    ______ ____
ROOT
ATOM      1  N   UNL     1       2.390  -1.944   0.429  0.00  0.00    -0.290 N 
ATOM      2  C   UNL     1       1.424  -1.179   0.975  0.00  0.00    +0.263 A 
ATOM      3  O   UNL     1       1.659  -0.467   1.936  0.00  0.00    -0.267 OA
ATOM      4  C   UNL     1       0.072  -1.223   0.376  0.00  0.00    +0.076 A 
ATOM      5  C   UNL     1      -0.064  -2.094  -0.728  0.00  0.00    +0.116 A 
ATOM      6  S   UNL     1      -1.770  -1.910  -1.185  0.00  0.00    -0.063 S 
ATOM      7  C   UNL     1      -2.243  -0.721   0.059  0.00  0.00    +0.082 A 
ATOM      8  N   UNL     1       0.955  -2.810  -1.185  0.00  0.00    -0.230 NA
ATOM      9  C   UNL     1      -1.085  -0.531   0.751  0.00  0.00    -0.017 A 
ATOM     10  C   UNL     1      -1.049   0.424   1.916  0.00  0.00    +0.046 C 
ATOM     11  C   UNL     1       2.138  -2.745  -0.636  0.00  0.00    +0.203 A 
ENDROOT
BRANCH   7  12
ATOM     12  C   UNL     1      -3.556  -0.103   0.283  0.00  0.00    +0.266 A 
ATOM     13  O   UNL     1      -3.871   0.786   1.240  0.00  0.00    -0.332 OA
ATOM     14  N   UNL     1      -5.038   1.100   1.145  0.00  0.00    -0.056 NA
ATOM     15  C   UNL     1      -5.602   0.462   0.150  0.00  0.00    +0.203 A 
ATOM     16  N   UNL     1      -4.660  -0.318  -0.416  0.00  0.00    -0.187 NA
BRANCH  15  17
ATOM     17  C   UNL     1      -7.020   0.576  -0.275  0.00  0.00    +0.025 A 
ATOM     18  C   UNL     1      -7.889   1.423   0.409  0.00  0.00    -0.040 A 
ATOM     19  C   UNL     1      -7.391   2.229   1.581  0.00  0.00    +0.044 C 
ATOM     20  C   UNL     1      -9.205   1.529   0.006  0.00  0.00    +0.004 A 
ATOM     21  C   UNL     1      -9.664   0.789  -1.068  0.00  0.00    +0.000 A 
ATOM     22  C   UNL     1      -8.806  -0.057  -1.748  0.00  0.00    +0.001 A 
ATOM     23  C   UNL     1      -7.487  -0.167  -1.357  0.00  0.00    +0.012 A 
ENDBRANCH  15  17
ENDBRANCH   7  12
BRANCH   1  24
ATOM     24  C   UNL     1       3.738  -1.914   1.001  0.00  0.00    +0.222 C 
BRANCH  24  27
ATOM     25  N   UNL     1       5.830  -0.633   0.683  0.00  0.00    -0.284 N 
ATOM     26  H   UNL     1       6.255  -1.224   1.324  0.00  0.00    +0.155 HD
ATOM     27  C   UNL     1       4.550  -0.844   0.318  0.00  0.00    +0.237 C 
ATOM     28  O   UNL     1       4.051  -0.172  -0.561  0.00  0.00    -0.274 OA
BRANCH  25  31
ATOM     29  C   UNL     1       8.669  -0.812   0.615  0.00  0.00    +0.045 C 
ATOM     30  C   UNL     1       7.934   0.393   0.086  0.00  0.00    -0.029 A 
ATOM     31  C   UNL     1       6.546   0.437   0.136  0.00  0.00    +0.039 A 
ATOM     32  C   UNL     1       5.872   1.551  -0.347  0.00  0.00    +0.062 A 
ATOM     33  C   UNL     1       6.583   2.607  -0.887  0.00  0.00    +0.125 A 
ATOM     34  F   UNL     1       5.928   3.689  -1.363  0.00  0.00    -0.205 F 
ATOM     35  C   UNL     1       7.966   2.556  -0.940  0.00  0.00    +0.039 A 
ATOM     36  C   UNL     1       8.639   1.451  -0.454  0.00  0.00    +0.008 A 
ENDBRANCH  25  31
ENDBRANCH  24  27
ENDBRANCH   1  24
TORSDOF 5
