REMARK  Name = m260
REMARK  6 active torsions:
REMARK  status: ('A' for Active; 'I' for Inactive)
REMARK    1  A    between atoms: C_1  and  C_2
REMARK    2  A    between atoms: C_7  and  S_8
REMARK    3  A    between atoms: S_8  and  C_9
REMARK    4  A    between atoms: C_9  and  C_10
REMARK    5  A    between atoms: C_28  and  C_29
REMARK    6  A    between atoms: C_28  and  C_30
REMARK                            x       y       z     vdW  Elec       q    Type
REMARK                         _______ _______ _______ _____ _____    ______ ____
ROOT
ATOM      1  C   UNL     1      -6.211   3.169  -0.043  0.00  0.00    +0.066 C 
ATOM      2  C   UNL     1      -5.075   2.179  -0.058  0.00  0.00    +0.045 A 
ATOM      3  C   UNL     1      -5.346   0.819  -0.118  0.00  0.00    +0.003 A 
ATOM      4  C   UNL     1      -6.777   0.351  -0.172  0.00  0.00    +0.197 C 
ATOM      5  O   UNL     1      -6.854  -0.964  -0.716  0.00  0.00    -0.369 OA
ATOM      6  C   UNL     1      -6.055  -1.814   0.108  0.00  0.00    +0.068 C 
ATOM      7  C   UNL     1      -4.577  -1.564  -0.206  0.00  0.00    +0.070 C 
ATOM      8  C   UNL     1      -6.402  -3.277  -0.175  0.00  0.00    +0.041 C 
ATOM      9  C   UNL     1      -6.323  -1.499   1.581  0.00  0.00    +0.041 C 
ATOM     10  C   UNL     1      -4.309  -0.084  -0.137  0.00  0.00    -0.026 A 
ATOM     11  C   UNL     1      -2.978   0.382  -0.086  0.00  0.00    +0.037 A 
ATOM     12  C   UNL     1      -2.811   1.777  -0.018  0.00  0.00    +0.111 A 
ATOM     13  S   UNL     1      -1.051   2.005   0.038  0.00  0.00    -0.064 S 
ATOM     14  C   UNL     1      -0.543   0.309  -0.029  0.00  0.00    +0.072 A 
ATOM     15  C   UNL     1       0.686  -0.338  -0.026  0.00  0.00    +0.115 A 
ATOM     16  N   UNL     1       0.700  -1.669  -0.090  0.00  0.00    -0.228 NA
ATOM     17  C   UNL     1      -0.437  -2.338  -0.152  0.00  0.00    +0.223 A 
ATOM     18  N   UNL     1      -1.613  -1.761  -0.155  0.00  0.00    -0.234 NA
ATOM     19  C   UNL     1      -1.738  -0.416  -0.094  0.00  0.00    +0.092 A 
ATOM     20  N   UNL     1      -3.830   2.610  -0.007  0.00  0.00    -0.244 NA
ENDROOT
BRANCH  15  21
ATOM     21  S   UNL     1       2.189   0.578   0.058  0.00  0.00    -0.095 S 
BRANCH  21  22
ATOM     22  C   UNL     1       3.386  -0.778   0.025  0.00  0.00    +0.172 C 
BRANCH  22  23
ATOM     23  C   UNL     1       4.784  -0.217   0.090  0.00  0.00    +0.228 C 
ATOM     24  N   UNL     1       5.845  -1.048   0.078  0.00  0.00    -0.270 N 
ATOM     25  H   UNL     1       5.709  -2.008   0.105  0.00  0.00    +0.156 HD
ATOM     26  C   UNL     1       7.137  -0.528   0.028  0.00  0.00    +0.125 A 
ATOM     27  N   UNL     1       7.320   0.781   0.097  0.00  0.00    -0.240 NA
ATOM     28  C   UNL     1       8.526   1.315   0.059  0.00  0.00    +0.113 A 
ATOM     29  C   UNL     1       9.648   0.520  -0.066  0.00  0.00    +0.020 A 
ATOM     30  C   UNL     1       9.499  -0.858  -0.147  0.00  0.00    +0.005 A 
ATOM     31  C   UNL     1       8.222  -1.388  -0.098  0.00  0.00    +0.044 A 
ATOM     32  O   UNL     1       4.953   0.982   0.152  0.00  0.00    -0.275 OA
ENDBRANCH  22  23
ENDBRANCH  21  22
ENDBRANCH  15  21
TORSDOF 3
