REMARK  Name = m261
REMARK  8 active torsions:
REMARK  status: ('A' for Active; 'I' for Inactive)
REMARK    1  A    between atoms: C_1  and  C_2
REMARK    2  A    between atoms: C_2  and  C_3
REMARK    3  A    between atoms: C_3  and  C_4
REMARK    4  A    between atoms: C_4  and  O_5
REMARK    5  A    between atoms: O_5  and  C_6
REMARK    6  A    between atoms: C_9  and  C_10
REMARK    7  A    between atoms: C_17  and  C_18
REMARK    8  A    between atoms: C_27  and  C_28
REMARK                            x       y       z     vdW  Elec       q    Type
REMARK                         _______ _______ _______ _____ _____    ______ ____
ROOT
ATOM      1  C   UNL     1       0.786  -1.929  -0.656  0.00  0.00    +0.063 C 
ATOM      2  C   UNL     1      -0.117  -0.749  -0.911  0.00  0.00    +0.023 A 
ATOM      3  C   UNL     1       0.123   0.409  -1.638  0.00  0.00    +0.066 A 
ATOM      4  N   UNL     1      -0.957   1.154  -1.595  0.00  0.00    -0.168 NA
ATOM      5  N   UNL     1      -1.929   0.486  -0.832  0.00  0.00    -0.198 N 
ATOM      6  C   UNL     1      -3.220   0.946  -0.555  0.00  0.00    +0.176 A 
ATOM      7  N   UNL     1      -4.027   0.210   0.171  0.00  0.00    -0.144 NA
ATOM      8  N   UNL     1      -5.319   0.652   0.464  0.00  0.00    -0.195 N 
ATOM      9  C   UNL     1      -5.758   1.862  -0.018  0.00  0.00    +0.178 A 
ATOM     10  N   UNL     1      -7.001   2.015   0.407  0.00  0.00    -0.128 NA
ATOM     11  N   UNL     1      -7.340   0.989   1.107  0.00  0.00    -0.132 NA
ATOM     12  C   UNL     1      -4.891   2.648  -0.801  0.00  0.00    +0.054 A 
ATOM     13  C   UNL     1      -6.348   0.135   1.168  0.00  0.00    +0.152 A 
ATOM     14  C   UNL     1      -6.356  -1.186   1.892  0.00  0.00    +0.090 C 
ATOM     15  C   UNL     1      -3.638   2.190  -1.064  0.00  0.00    +0.054 A 
ATOM     16  C   UNL     1       1.404   0.752  -2.353  0.00  0.00    +0.068 C 
ATOM     17  C   UNL     1      -1.391  -0.680  -0.415  0.00  0.00    +0.134 A 
ATOM     18  N   UNL     1      -1.931  -1.694   0.375  0.00  0.00    -0.270 N 
ATOM     19  H   UNL     1      -2.875  -1.704   0.598  0.00  0.00    +0.156 HD
ATOM     20  C   UNL     1      -1.102  -2.662   0.819  0.00  0.00    +0.219 C 
ATOM     21  O   UNL     1      -1.576  -3.647   1.344  0.00  0.00    -0.275 OA
ATOM     22  C   UNL     1       0.391  -2.556   0.685  0.00  0.00    +0.109 C 
ENDROOT
BRANCH   1  26
ATOM     23  C   UNL     1       4.852  -0.625  -0.494  0.00  0.00    +0.121 A 
ATOM     24  C   UNL     1       3.920  -0.106   0.393  0.00  0.00    +0.046 A 
ATOM     25  C   UNL     1       2.605  -0.525   0.335  0.00  0.00    +0.008 A 
ATOM     26  C   UNL     1       2.220  -1.469  -0.599  0.00  0.00    -0.039 A 
ATOM     27  C   UNL     1       3.148  -1.992  -1.480  0.00  0.00    +0.008 A 
ATOM     28  C   UNL     1       4.463  -1.572  -1.430  0.00  0.00    +0.046 A 
BRANCH  23  29
ATOM     29  O   UNL     1       6.145  -0.209  -0.443  0.00  0.00    -0.492 OA
BRANCH  29  30
ATOM     30  C   UNL     1       6.228   0.754   0.609  0.00  0.00    +0.229 C 
BRANCH  30  31
ATOM     31  C   UNL     1       7.666   1.264   0.721  0.00  0.00    +0.041 C 
BRANCH  31  33
ATOM     32  C   UNL     1       9.193   2.806   1.959  0.00  0.00    +0.004 C 
ATOM     33  C   UNL     1       7.755   2.296   1.847  0.00  0.00    -0.000 C 
ENDBRANCH  31  33
ENDBRANCH  30  31
ENDBRANCH  29  30
ENDBRANCH  23  29
ENDBRANCH   1  26
TORSDOF 5
