REMARK  Name = m262
REMARK  5 active torsions:
REMARK  status: ('A' for Active; 'I' for Inactive)
REMARK    1  A    between atoms: C_1  and  C_2
REMARK    2  A    between atoms: C_5  and  C_6
REMARK    3  A    between atoms: C_11  and  C_12
REMARK    4  A    between atoms: C_12  and  N_13
REMARK    5  A    between atoms: N_13  and  C_14
REMARK                            x       y       z     vdW  Elec       q    Type
REMARK                         _______ _______ _______ _____ _____    ______ ____
ROOT
ATOM      1  C   UNL     1       3.041  -1.047   0.007  0.00  0.00    +0.132 A 
ATOM      2  C   UNL     1       1.849  -1.773   0.211  0.00  0.00    +0.014 A 
ATOM      3  C   UNL     1       2.115  -3.077  -0.017  0.00  0.00    +0.110 A 
ATOM      4  N   UNL     1       3.421  -3.186  -0.343  0.00  0.00    -0.284 N 
ATOM      5  H   UNL     1       3.888  -4.010  -0.555  0.00  0.00    +0.188 HD
ATOM      6  N   UNL     1       3.985  -1.904  -0.323  0.00  0.00    -0.170 NA
ENDROOT
BRANCH   1  10
ATOM      7  C   UNL     1       2.051   3.873  -0.124  0.00  0.00    +0.086 C 
ATOM      8  C   UNL     1       2.776   2.570   0.091  0.00  0.00    +0.103 A 
ATOM      9  O   UNL     1       2.280   1.347  -0.161  0.00  0.00    -0.458 OA
ATOM     10  C   UNL     1       3.203   0.416   0.147  0.00  0.00    +0.155 A 
ATOM     11  C   UNL     1       4.308   1.055   0.613  0.00  0.00    +0.052 A 
ATOM     12  C   UNL     1       4.026   2.436   0.575  0.00  0.00    +0.045 A 
ENDBRANCH   1  10
BRANCH   2  13
ATOM     13  C   UNL     1       0.513  -1.195   0.604  0.00  0.00    +0.120 C 
BRANCH  13  14
ATOM     14  N   UNL     1      -0.139  -0.621  -0.581  0.00  0.00    -0.307 NA
ATOM     15  H   UNL     1       0.423   0.166  -0.869  0.00  0.00    +0.123 HD
BRANCH  14  16
ATOM     16  C   UNL     1      -1.428  -0.078  -0.131  0.00  0.00    +0.076 C 
ATOM     17  C   UNL     1      -2.478  -1.195  -0.126  0.00  0.00    +0.164 C 
ATOM     18  N   UNL     1      -3.797  -0.600   0.093  0.00  0.00    -0.248 N 
ATOM     19  C   UNL     1      -4.091   0.706  -0.061  0.00  0.00    +0.128 A 
ATOM     20  N   UNL     1      -5.353   0.871   0.221  0.00  0.00    -0.219 NA
ATOM     21  C   UNL     1      -5.897  -0.301   0.557  0.00  0.00    +0.245 A 
ATOM     22  C   UNL     1      -3.092   1.753  -0.489  0.00  0.00    +0.077 C 
ATOM     23  N   UNL     1      -4.978  -1.232   0.491  0.00  0.00    -0.158 NA
ATOM     24  C   UNL     1      -1.872   1.036  -1.083  0.00  0.00    +0.028 C 
ENDBRANCH  14  16
ENDBRANCH  13  14
ENDBRANCH   2  13
TORSDOF 4
