REMARK  Name = m263
REMARK  10 active torsions:
REMARK  status: ('A' for Active; 'I' for Inactive)
REMARK    1  A    between atoms: C_1  and  C_2
REMARK    2  A    between atoms: C_6  and  C_7
REMARK    3  A    between atoms: C_8  and  C_9
REMARK    4  A    between atoms: C_11  and  C_12
REMARK    5  A    between atoms: C_13  and  S_14
REMARK    6  A    between atoms: S_14  and  N_17
REMARK    7  A    between atoms: N_17  and  C_18
REMARK    8  A    between atoms: C_18  and  C_19
REMARK    9  A    between atoms: C_19  and  C_20
REMARK   10  A    between atoms: C_26  and  C_27
REMARK                            x       y       z     vdW  Elec       q    Type
REMARK                         _______ _______ _______ _____ _____    ______ ____
ROOT
ATOM      1  C   UNL     1      -2.134  -0.863   0.438  0.00  0.00    +0.037 A 
ATOM      2  C   UNL     1      -1.143  -1.298  -0.439  0.00  0.00    +0.124 A 
ATOM      3  C   UNL     1      -0.572  -2.506  -0.238  0.00  0.00    +0.014 A 
ATOM      4  C   UNL     1       0.510  -3.186  -1.036  0.00  0.00    +0.053 C 
ATOM      5  S   UNL     1      -1.432  -3.095   1.212  0.00  0.00    -0.096 S 
ATOM      6  C   UNL     1      -2.499  -1.687   1.468  0.00  0.00    -0.002 A 
ATOM      7  C   UNL     1      -3.534  -1.464   2.540  0.00  0.00    +0.052 C 
ENDROOT
BRANCH   1  12
ATOM      8  C   UNL     1      -3.172   4.095   0.737  0.00  0.00    +0.068 C 
ATOM      9  C   UNL     1      -3.253   2.634   0.377  0.00  0.00    +0.063 A 
ATOM     10  C   UNL     1      -2.363   1.642   0.790  0.00  0.00    -0.002 A 
ATOM     11  C   UNL     1      -1.160   1.843   1.675  0.00  0.00    +0.048 C 
ATOM     12  C   UNL     1      -2.781   0.456   0.257  0.00  0.00    +0.072 A 
ATOM     13  N   UNL     1      -3.900   0.712  -0.477  0.00  0.00    -0.276 N 
ATOM     14  H   UNL     1      -4.418   0.062  -0.976  0.00  0.00    +0.189 HD
ATOM     15  N   UNL     1      -4.168   2.084  -0.381  0.00  0.00    -0.178 NA
ENDBRANCH   1  12
BRANCH   2  16
ATOM     16  S   UNL     1      -0.633  -0.281  -1.786  0.00  0.00    +0.060 S 
ATOM     17  O   UNL     1      -1.771   0.493  -2.138  0.00  0.00    -0.153 OA
ATOM     18  O   UNL     1       0.084  -1.137  -2.665  0.00  0.00    -0.153 OA
BRANCH  16  19
ATOM     19  N   UNL     1       0.480   0.795  -1.199  0.00  0.00    -0.190 NA
ATOM     20  H   UNL     1       0.294   1.747  -1.223  0.00  0.00    +0.148 HD
BRANCH  19  21
ATOM     21  C   UNL     1       1.746   0.311  -0.644  0.00  0.00    +0.110 C 
BRANCH  21  22
ATOM     22  C   UNL     1       2.726   1.479  -0.512  0.00  0.00    +0.047 C 
BRANCH  22  23
ATOM     23  C   UNL     1       4.028   0.980   0.059  0.00  0.00    -0.072 C 
ATOM     24  C   UNL     1       4.150   0.881   1.551  0.00  0.00    +0.030 C 
ATOM     25  C   UNL     1       5.331  -0.021   1.923  0.00  0.00    +0.005 C 
ATOM     26  C   UNL     1       6.560   0.443   1.131  0.00  0.00    +0.004 C 
ATOM     27  C   UNL     1       6.319   0.150  -0.351  0.00  0.00    +0.027 C 
ATOM     28  C   UNL     1       4.974   0.669  -0.769  0.00  0.00    -0.028 C 
ENDBRANCH  22  23
ENDBRANCH  21  22
ENDBRANCH  19  21
ENDBRANCH  16  19
ENDBRANCH   2  16
TORSDOF 6
