REMARK  Name = m264
REMARK  6 active torsions:
REMARK  status: ('A' for Active; 'I' for Inactive)
REMARK    1  A    between atoms: C_2  and  C_3
REMARK    2  A    between atoms: C_3  and  O_4
REMARK    3  A    between atoms: O_4  and  C_5
REMARK    4  A    between atoms: C_8  and  C_9
REMARK    5  A    between atoms: C_16  and  C_17
REMARK    6  A    between atoms: C_26  and  C_27
REMARK                            x       y       z     vdW  Elec       q    Type
REMARK                         _______ _______ _______ _____ _____    ______ ____
ROOT
ATOM      1  C   UNL     1      -1.291  -1.534   0.899  0.00  0.00    +0.063 C 
ATOM      2  C   UNL     1      -0.326  -0.376   0.909  0.00  0.00    +0.023 A 
ATOM      3  C   UNL     1      -0.525   0.939   1.304  0.00  0.00    +0.066 A 
ATOM      4  N   UNL     1       0.603   1.591   1.148  0.00  0.00    -0.168 NA
ATOM      5  N   UNL     1       1.566   0.702   0.643  0.00  0.00    -0.198 N 
ATOM      6  C   UNL     1       2.898   1.009   0.345  0.00  0.00    +0.176 A 
ATOM      7  N   UNL     1       3.690   0.071  -0.117  0.00  0.00    -0.144 NA
ATOM      8  N   UNL     1       5.021   0.357  -0.426  0.00  0.00    -0.195 N 
ATOM      9  C   UNL     1       5.515   1.625  -0.235  0.00  0.00    +0.178 A 
ATOM     10  N   UNL     1       6.786   1.600  -0.602  0.00  0.00    -0.128 NA
ATOM     11  N   UNL     1       7.091   0.413  -0.997  0.00  0.00    -0.132 NA
ATOM     12  C   UNL     1       4.665   2.628   0.267  0.00  0.00    +0.054 A 
ATOM     13  C   UNL     1       6.049  -0.375  -0.907  0.00  0.00    +0.152 A 
ATOM     14  C   UNL     1       6.004  -1.836  -1.274  0.00  0.00    +0.090 C 
ATOM     15  C   UNL     1       3.372   2.317   0.552  0.00  0.00    +0.054 A 
ATOM     16  C   UNL     1      -1.815   1.519   1.824  0.00  0.00    +0.068 C 
ATOM     17  C   UNL     1       0.974  -0.502   0.497  0.00  0.00    +0.134 A 
ATOM     18  N   UNL     1       1.484  -1.710   0.025  0.00  0.00    -0.270 N 
ATOM     19  H   UNL     1       2.435  -1.826  -0.125  0.00  0.00    +0.156 HD
ATOM     20  C   UNL     1       0.616  -2.716  -0.216  0.00  0.00    +0.219 C 
ATOM     21  O   UNL     1       1.049  -3.825  -0.444  0.00  0.00    -0.275 OA
ATOM     22  C   UNL     1      -0.872  -2.502  -0.212  0.00  0.00    +0.109 C 
ENDROOT
BRANCH   1  26
ATOM     23  C   UNL     1      -5.247  -0.105   0.146  0.00  0.00    +0.122 A 
ATOM     24  C   UNL     1      -4.239   0.122  -0.779  0.00  0.00    +0.046 A 
ATOM     25  C   UNL     1      -2.960  -0.337  -0.531  0.00  0.00    +0.008 A 
ATOM     26  C   UNL     1      -2.686  -1.030   0.634  0.00  0.00    -0.039 A 
ATOM     27  C   UNL     1      -3.691  -1.262   1.555  0.00  0.00    +0.008 A 
ATOM     28  C   UNL     1      -4.971  -0.801   1.314  0.00  0.00    +0.046 A 
BRANCH  23  29
ATOM     29  O   UNL     1      -6.506   0.350  -0.093  0.00  0.00    -0.480 OA
BRANCH  29  30
ATOM     30  C   UNL     1      -6.470   1.016  -1.357  0.00  0.00    +0.317 C 
BRANCH  30  32
ATOM     31  C   UNL     1      -8.880   1.948  -1.930  0.00  0.00    +0.007 C 
ATOM     32  C   UNL     1      -7.811   1.535  -1.676  0.00  0.00    -0.065 C 
ENDBRANCH  30  32
ENDBRANCH  29  30
ENDBRANCH  23  29
ENDBRANCH   1  26
TORSDOF 4
