REMARK  Name = m265
REMARK  11 active torsions:
REMARK  status: ('A' for Active; 'I' for Inactive)
REMARK    1  A    between atoms: C_1  and  C_2
REMARK    2  A    between atoms: C_2  and  O_3
REMARK    3  A    between atoms: O_3  and  C_4
REMARK    4  A    between atoms: C_4  and  C_6
REMARK    5  A    between atoms: C_8  and  N_9
REMARK    6  A    between atoms: C_10  and  C_12
REMARK    7  A    between atoms: C_22  and  C_23
REMARK    8  A    between atoms: C_23  and  O_25
REMARK    9  A    between atoms: O_25  and  C_26
REMARK   10  A    between atoms: C_26  and  C_27
REMARK   11  A    between atoms: C_28  and  C_29
REMARK                            x       y       z     vdW  Elec       q    Type
REMARK                         _______ _______ _______ _____ _____    ______ ____
ROOT
ATOM      1  C   UNL     1       3.210   0.768  -0.104  0.00  0.00    +0.102 A 
ATOM      2  C   UNL     1       3.196  -0.589  -0.288  0.00  0.00    -0.014 A 
ATOM      3  C   UNL     1       4.478  -1.370  -0.428  0.00  0.00    +0.046 C 
ATOM      4  C   UNL     1       1.963  -1.220  -0.329  0.00  0.00    +0.091 A 
ATOM      5  C   UNL     1       0.820  -0.425  -0.192  0.00  0.00    +0.087 A 
ATOM      6  S   UNL     1       1.476   1.168  -0.002  0.00  0.00    -0.066 S 
ENDROOT
BRANCH   5   7
ATOM      7  N   UNL     1      -0.504  -0.813  -0.205  0.00  0.00    -0.274 N 
ATOM      8  H   UNL     1      -0.734  -1.748  -0.322  0.00  0.00    +0.156 HD
ATOM      9  C   UNL     1      -1.478   0.107  -0.057  0.00  0.00    +0.271 C 
ATOM     10  O   UNL     1      -1.190   1.278   0.089  0.00  0.00    -0.268 OA
BRANCH   9  11
ATOM     11  C   UNL     1      -2.901  -0.310  -0.071  0.00  0.00    +0.171 A 
ATOM     12  C   UNL     1      -4.036   0.521   0.076  0.00  0.00    +0.027 A 
ATOM     13  C   UNL     1      -4.095   2.010   0.255  0.00  0.00    +0.041 C 
ATOM     14  C   UNL     1      -5.380   2.369   1.010  0.00  0.00    +0.005 C 
ATOM     15  C   UNL     1      -6.518   2.575   0.014  0.00  0.00    +0.001 C 
ATOM     16  C   UNL     1      -6.790   1.297  -0.774  0.00  0.00    +0.008 C 
ATOM     17  C   UNL     1      -6.534   0.072   0.117  0.00  0.00    +0.077 C 
ATOM     18  C   UNL     1      -5.086  -0.323  -0.004  0.00  0.00    +0.141 A 
ATOM     19  O   UNL     1      -4.580  -1.547  -0.185  0.00  0.00    -0.359 OA
ATOM     20  N   UNL     1      -3.368  -1.529  -0.217  0.00  0.00    -0.073 NA
ENDBRANCH   9  11
ENDBRANCH   5   7
BRANCH   1  21
ATOM     21  C   UNL     1       4.361   1.667  -0.020  0.00  0.00    +0.346 C 
ATOM     22  O   UNL     1       5.489   1.220  -0.111  0.00  0.00    -0.244 OA
BRANCH  21  23
ATOM     23  O   UNL     1       4.172   2.990   0.160  0.00  0.00    -0.461 OA
BRANCH  23  25
ATOM     24  C   UNL     1       5.324   5.101   0.404  0.00  0.00    +0.048 C 
ATOM     25  C   UNL     1       5.468   3.591   0.201  0.00  0.00    +0.229 C 
ENDBRANCH  23  25
ENDBRANCH  21  23
ENDBRANCH   1  21
BRANCH   4  26
ATOM     26  C   UNL     1       1.860  -2.672  -0.516  0.00  0.00    +0.342 C 
ATOM     27  O   UNL     1       1.787  -3.137  -1.637  0.00  0.00    -0.245 OA
BRANCH  26  28
ATOM     28  O   UNL     1       1.846  -3.490   0.555  0.00  0.00    -0.461 OA
BRANCH  28  29
ATOM     29  C   UNL     1       1.744  -4.927   0.370  0.00  0.00    +0.229 C 
ATOM     30  C   UNL     1       1.750  -5.619   1.735  0.00  0.00    +0.048 C 
ENDBRANCH  28  29
ENDBRANCH  26  28
ENDBRANCH   4  26
TORSDOF 8
