REMARK  Name = m266
REMARK  9 active torsions:
REMARK  status: ('A' for Active; 'I' for Inactive)
REMARK    1  A    between atoms: C_1  and  O_2
REMARK    2  A    between atoms: O_2  and  C_3
REMARK    3  A    between atoms: C_5  and  C_6
REMARK    4  A    between atoms: C_6  and  N_7
REMARK    5  A    between atoms: C_11  and  C_12
REMARK    6  A    between atoms: C_15  and  C_16
REMARK    7  A    between atoms: C_27  and  O_28
REMARK    8  A    between atoms: O_28  and  C_29
REMARK    9  A    between atoms: C_29  and  C_30
REMARK                            x       y       z     vdW  Elec       q    Type
REMARK                         _______ _______ _______ _____ _____    ______ ____
ROOT
ATOM      1  N   UNL     1      -0.223  -0.223   0.055  0.00  0.00    -0.293 NA
ATOM      2  C   UNL     1       1.205  -0.049  -0.240  0.00  0.00    +0.122 C 
ATOM      3  C   UNL     1       2.038  -0.628   0.905  0.00  0.00    +0.180 C 
ATOM      4  O   UNL     1       1.802  -2.032   1.009  0.00  0.00    -0.368 OA
ATOM      5  C   UNL     1       0.424  -2.205   1.339  0.00  0.00    +0.176 C 
ATOM      6  C   UNL     1      -0.450  -1.667   0.205  0.00  0.00    +0.113 C 
ENDROOT
BRANCH   3   7
ATOM      7  C   UNL     1       3.500  -0.384   0.635  0.00  0.00    +0.071 A 
ATOM      8  N   UNL     1       4.031  -0.807  -0.496  0.00  0.00    -0.257 NA
ATOM      9  C   UNL     1       5.302  -0.614  -0.782  0.00  0.00    +0.121 A 
ATOM     10  C   UNL     1       6.140   0.043   0.117  0.00  0.00    +0.020 A 
ATOM     11  C   UNL     1       5.608   0.498   1.327  0.00  0.00    +0.013 A 
ATOM     12  C   UNL     1       4.265   0.276   1.579  0.00  0.00    +0.026 A 
BRANCH  10  13
ATOM     13  C   UNL     1       7.573   0.254  -0.203  0.00  0.00    +0.094 A 
ATOM     14  N   UNL     1       8.272   1.340   0.051  0.00  0.00    -0.174 NA
ATOM     15  N   UNL     1       9.580   1.133  -0.405  0.00  0.00    -0.284 N 
ATOM     16  H   UNL     1      10.310   1.768  -0.345  0.00  0.00    +0.188 HD
ATOM     17  C   UNL     1       9.646  -0.101  -0.948  0.00  0.00    +0.105 A 
ATOM     18  C   UNL     1       8.425  -0.670  -0.840  0.00  0.00    +0.049 A 
ENDBRANCH  10  13
ENDBRANCH   3   7
BRANCH   1  19
ATOM     19  C   UNL     1      -0.956   0.196  -1.148  0.00  0.00    +0.119 C 
BRANCH  19  24
ATOM     20  C   UNL     1      -4.325   1.536  -0.086  0.00  0.00    +0.162 A 
ATOM     21  C   UNL     1      -5.133   0.416  -0.258  0.00  0.00    +0.163 A 
ATOM     22  C   UNL     1      -4.584  -0.766  -0.728  0.00  0.00    +0.050 A 
ATOM     23  C   UNL     1      -3.233  -0.834  -1.013  0.00  0.00    +0.009 A 
ATOM     24  C   UNL     1      -2.428   0.276  -0.836  0.00  0.00    -0.030 A 
ATOM     25  C   UNL     1      -2.972   1.460  -0.373  0.00  0.00    +0.054 A 
BRANCH  20  27
ATOM     26  C   UNL     1      -3.792   3.645   0.445  0.00  0.00    +0.277 C 
ATOM     27  O   UNL     1      -4.861   2.699   0.370  0.00  0.00    -0.491 OA
ENDBRANCH  20  27
BRANCH  21  28
ATOM     28  O   UNL     1      -6.462   0.485   0.022  0.00  0.00    -0.479 OA
BRANCH  28  29
ATOM     29  C   UNL     1      -7.013  -0.802  -0.265  0.00  0.00    +0.324 C 
BRANCH  29  30
ATOM     30  C   UNL     1      -8.491  -0.793   0.027  0.00  0.00    +0.248 C 
ATOM     31  O   UNL     1      -9.021   0.217   0.440  0.00  0.00    -0.272 OA
ATOM     32  N   UNL     1      -9.224  -1.906  -0.171  0.00  0.00    -0.327 N 
ATOM     33  H   UNL     1     -10.176  -1.900   0.017  0.00  0.00    +0.145 HD
ATOM     34  H   UNL     1      -8.800  -2.714  -0.501  0.00  0.00    +0.145 HD
ENDBRANCH  29  30
ENDBRANCH  28  29
ENDBRANCH  21  28
ENDBRANCH  19  24
ENDBRANCH   1  19
TORSDOF 8
