REMARK  Name = m267
REMARK  5 active torsions:
REMARK  status: ('A' for Active; 'I' for Inactive)
REMARK    1  A    between atoms: C_1  and  C_2
REMARK    2  A    between atoms: C_3  and  C_4
REMARK    3  A    between atoms: C_6  and  C_7
REMARK    4  A    between atoms: N_20  and  C_21
REMARK    5  A    between atoms: C_21  and  C_22
REMARK                            x       y       z     vdW  Elec       q    Type
REMARK                         _______ _______ _______ _____ _____    ______ ____
ROOT
ATOM      1  C   UNL     1      -0.096   1.859  -0.769  0.00  0.00    +0.046 C 
ATOM      2  C   UNL     1      -0.062   0.376  -0.505  0.00  0.00    -0.017 A 
ATOM      3  C   UNL     1      -1.251  -0.362  -0.492  0.00  0.00    +0.076 A 
ATOM      4  C   UNL     1      -1.114  -1.745  -0.241  0.00  0.00    +0.116 A 
ATOM      5  N   UNL     1      -2.162  -2.558  -0.206  0.00  0.00    -0.230 NA
ATOM      6  C   UNL     1      -3.375  -2.120  -0.408  0.00  0.00    +0.203 A 
ATOM      7  N   UNL     1      -3.631  -0.813  -0.664  0.00  0.00    -0.290 N 
ATOM      8  S   UNL     1       0.636  -1.948  -0.025  0.00  0.00    -0.063 S 
ATOM      9  C   UNL     1      -2.639   0.098  -0.722  0.00  0.00    +0.263 A 
ATOM     10  O   UNL     1      -2.879   1.270  -0.953  0.00  0.00    -0.267 OA
ATOM     11  C   UNL     1       1.126  -0.250  -0.273  0.00  0.00    +0.082 A 
ENDROOT
BRANCH  11  12
ATOM     12  C   UNL     1       2.475   0.330  -0.236  0.00  0.00    +0.266 A 
ATOM     13  O   UNL     1       2.799   1.619  -0.434  0.00  0.00    -0.332 OA
ATOM     14  N   UNL     1       3.998   1.763  -0.330  0.00  0.00    -0.056 NA
ATOM     15  C   UNL     1       4.575   0.617  -0.070  0.00  0.00    +0.202 A 
ATOM     16  N   UNL     1       3.606  -0.318  -0.006  0.00  0.00    -0.187 NA
BRANCH  15  17
ATOM     17  C   UNL     1       6.030   0.389   0.119  0.00  0.00    +0.023 A 
ATOM     18  C   UNL     1       6.506  -0.890   0.397  0.00  0.00    +0.014 A 
ATOM     19  C   UNL     1       7.859  -1.099   0.567  0.00  0.00    +0.039 A 
ATOM     20  C   UNL     1       8.743  -0.036   0.472  0.00  0.00    +0.123 A 
ATOM     21  F   UNL     1      10.067  -0.244   0.644  0.00  0.00    -0.205 F 
ATOM     22  C   UNL     1       8.273   1.239   0.201  0.00  0.00    +0.039 A 
ATOM     23  C   UNL     1       6.922   1.455   0.025  0.00  0.00    +0.014 A 
ENDBRANCH  15  17
ENDBRANCH  11  12
BRANCH   7  24
ATOM     24  C   UNL     1      -5.014  -0.382  -0.882  0.00  0.00    +0.222 C 
BRANCH  24  25
ATOM     25  C   UNL     1      -5.631   0.011   0.436  0.00  0.00    +0.235 C 
ATOM     26  N   UNL     1      -6.907   0.443   0.480  0.00  0.00    -0.300 N 
ATOM     27  C   UNL     1      -7.806   0.586  -0.679  0.00  0.00    +0.108 C 
ATOM     28  C   UNL     1      -9.236   0.491  -0.083  0.00  0.00    +0.020 C 
ATOM     29  C   UNL     1      -9.060   1.244   1.262  0.00  0.00    +0.020 C 
ATOM     30  C   UNL     1      -7.630   0.856   1.692  0.00  0.00    +0.108 C 
ATOM     31  O   UNL     1      -4.980  -0.062   1.456  0.00  0.00    -0.274 OA
ENDBRANCH  24  25
ENDBRANCH   7  24
TORSDOF 4
