REMARK  Name = m268
REMARK  8 active torsions:
REMARK  status: ('A' for Active; 'I' for Inactive)
REMARK    1  A    between atoms: C_1  and  N_2
REMARK    2  A    between atoms: C_3  and  C_5
REMARK    3  A    between atoms: C_13  and  C_14
REMARK    4  A    between atoms: C_17  and  C_19
REMARK    5  A    between atoms: C_19  and  C_20
REMARK    6  A    between atoms: C_20  and  N_21
REMARK    7  A    between atoms: C_23  and  C_24
REMARK    8  A    between atoms: C_26  and  C_27
REMARK                            x       y       z     vdW  Elec       q    Type
REMARK                         _______ _______ _______ _____ _____    ______ ____
ROOT
ATOM      1  C   UNL     1       1.537  -0.135  -0.699  0.00  0.00    +0.167 C 
ATOM      2  O   UNL     1       1.427   0.895  -1.681  0.00  0.00    -0.369 OA
ATOM      3  C   UNL     1       0.110   0.834  -2.228  0.00  0.00    +0.179 C 
ATOM      4  C   UNL     1      -0.908   1.263  -1.166  0.00  0.00    +0.136 C 
ATOM      5  N   UNL     1      -0.725   0.407   0.018  0.00  0.00    -0.296 N 
ATOM      6  C   UNL     1      -1.776  -0.170   0.634  0.00  0.00    +0.217 C 
ATOM      7  O   UNL     1      -1.599  -0.871   1.608  0.00  0.00    -0.276 OA
ATOM      8  C   UNL     1       0.651   0.205   0.504  0.00  0.00    +0.144 C 
ENDROOT
BRANCH   1  10
ATOM      9  C   UNL     1       3.687   0.874   0.031  0.00  0.00    +0.082 A 
ATOM     10  C   UNL     1       2.971  -0.247  -0.250  0.00  0.00    +0.011 A 
ATOM     11  C   UNL     1       3.573  -1.511  -0.126  0.00  0.00    +0.014 A 
ATOM     12  C   UNL     1       4.922  -1.507   0.307  0.00  0.00    +0.109 A 
ATOM     13  N   UNL     1       5.616  -2.609   0.474  0.00  0.00    -0.248 NA
ATOM     14  C   UNL     1       5.084  -3.794   0.244  0.00  0.00    +0.112 A 
ATOM     15  C   UNL     1       3.769  -3.903  -0.184  0.00  0.00    +0.020 A 
ATOM     16  C   UNL     1       3.005  -2.789  -0.373  0.00  0.00    +0.012 A 
ATOM     17  S   UNL     1       5.278   0.222   0.508  0.00  0.00    -0.064 S 
BRANCH   9  21
ATOM     18  C   UNL     1       3.684   4.662   0.221  0.00  0.00    +0.128 C 
ATOM     19  N   UNL     1       4.114   3.263   0.288  0.00  0.00    -0.314 N 
ATOM     20  H   UNL     1       5.018   3.047   0.567  0.00  0.00    +0.149 HD
ATOM     21  C   UNL     1       3.255   2.277  -0.037  0.00  0.00    +0.251 C 
ATOM     22  O   UNL     1       2.122   2.548  -0.386  0.00  0.00    -0.270 OA
ENDBRANCH   9  21
ENDBRANCH   1  10
BRANCH   6  23
ATOM     23  C   UNL     1      -3.172   0.055   0.112  0.00  0.00    +0.119 C 
BRANCH  23  24
ATOM     24  C   UNL     1      -4.172  -0.706   0.985  0.00  0.00    +0.155 C 
BRANCH  24  25
ATOM     25  N   UNL     1      -5.529  -0.487   0.478  0.00  0.00    -0.249 N 
ATOM     26  C   UNL     1      -6.376   0.492   0.840  0.00  0.00    +0.125 A 
ATOM     27  C   UNL     1      -6.096   1.576   1.848  0.00  0.00    +0.088 C 
ATOM     28  N   UNL     1      -7.483   0.343   0.159  0.00  0.00    -0.217 NA
ATOM     29  C   UNL     1      -7.383  -0.719  -0.639  0.00  0.00    +0.148 A 
ATOM     30  C   UNL     1      -8.456  -1.216  -1.573  0.00  0.00    +0.090 C 
ATOM     31  N   UNL     1      -6.205  -1.261  -0.479  0.00  0.00    -0.155 NA
ENDBRANCH  24  25
ENDBRANCH  23  24
ENDBRANCH   6  23
TORSDOF 5
