REMARK  Name = m269
REMARK  11 active torsions:
REMARK  status: ('A' for Active; 'I' for Inactive)
REMARK    1  A    between atoms: C_1  and  C_2
REMARK    2  A    between atoms: C_2  and  N_3
REMARK    3  A    between atoms: N_3  and  C_4
REMARK    4  A    between atoms: C_4  and  C_5
REMARK    5  A    between atoms: C_6  and  C_8
REMARK    6  A    between atoms: C_10  and  C_11
REMARK    7  A    between atoms: C_13  and  S_14
REMARK    8  A    between atoms: S_14  and  N_17
REMARK    9  A    between atoms: C_24  and  C_25
REMARK   10  A    between atoms: N_26  and  C_27
REMARK   11  A    between atoms: C_29  and  C_30
REMARK                            x       y       z     vdW  Elec       q    Type
REMARK                         _______ _______ _______ _____ _____    ______ ____
ROOT
ATOM      1  C   UNL     1      -0.341   1.202   0.103  0.00  0.00    +0.076 A 
ATOM      2  N   UNL     1      -1.155   2.230  -0.309  0.00  0.00    -0.344 N 
ATOM      3  C   UNL     1      -0.737   3.382  -1.112  0.00  0.00    +0.149 C 
ATOM      4  C   UNL     1      -2.415   1.994   0.146  0.00  0.00    +0.043 A 
ATOM      5  C   UNL     1      -3.613   2.877  -0.087  0.00  0.00    +0.065 C 
ATOM      6  C   UNL     1      -2.411   0.837   0.847  0.00  0.00    +0.130 A 
ATOM      7  C   UNL     1      -1.105   0.328   0.825  0.00  0.00    +0.059 A 
ENDROOT
BRANCH   1  12
ATOM      8  C   UNL     1       3.689   0.456  -0.461  0.00  0.00    +0.097 A 
ATOM      9  C   UNL     1       3.164   1.613  -1.023  0.00  0.00    +0.058 A 
ATOM     10  C   UNL     1       4.047   2.546  -1.810  0.00  0.00    +0.067 C 
ATOM     11  N   UNL     1       1.897   1.876  -0.870  0.00  0.00    -0.242 NA
ATOM     12  C   UNL     1       1.095   1.068  -0.178  0.00  0.00    +0.126 A 
ATOM     13  S   UNL     1       2.228  -0.223   0.318  0.00  0.00    -0.061 S 
BRANCH   8  15
ATOM     14  N   UNL     1       5.326  -1.290  -0.006  0.00  0.00    -0.298 N 
ATOM     15  C   UNL     1       5.058  -0.061  -0.492  0.00  0.00    +0.255 C 
ATOM     16  O   UNL     1       5.955   0.618  -0.957  0.00  0.00    -0.269 OA
BRANCH  14  18
ATOM     17  C   UNL     1       3.918  -1.863   1.910  0.00  0.00    +0.024 C 
ATOM     18  C   UNL     1       4.231  -2.155   0.441  0.00  0.00    +0.105 C 
ENDBRANCH  14  18
BRANCH  14  19
ATOM     19  C   UNL     1       6.711  -1.760   0.074  0.00  0.00    +0.105 C 
ATOM     20  C   UNL     1       7.298  -1.387   1.437  0.00  0.00    +0.024 C 
ENDBRANCH  14  19
ENDBRANCH   8  15
ENDBRANCH   1  12
BRANCH   6  21
ATOM     21  S   UNL     1      -3.799   0.101   1.645  0.00  0.00    +0.075 S 
ATOM     22  O   UNL     1      -4.395   1.137   2.414  0.00  0.00    -0.150 OA
ATOM     23  O   UNL     1      -3.337  -1.141   2.156  0.00  0.00    -0.150 OA
BRANCH  21  24
ATOM     24  N   UNL     1      -4.902  -0.278   0.469  0.00  0.00    -0.199 N 
ATOM     25  H   UNL     1      -5.786   0.121   0.487  0.00  0.00    +0.175 HD
ATOM     26  C   UNL     1      -4.561  -1.167  -0.543  0.00  0.00    +0.138 A 
ATOM     27  N   UNL     1      -3.385  -1.776  -0.513  0.00  0.00    -0.239 NA
ATOM     28  C   UNL     1      -3.025  -2.631  -1.451  0.00  0.00    +0.113 A 
ATOM     29  C   UNL     1      -3.863  -2.914  -2.511  0.00  0.00    +0.020 A 
ATOM     30  C   UNL     1      -5.103  -2.292  -2.583  0.00  0.00    +0.005 A 
ATOM     31  C   UNL     1      -5.455  -1.405  -1.582  0.00  0.00    +0.045 A 
ENDBRANCH  21  24
ENDBRANCH   6  21
TORSDOF 6
