REMARK  Name = m270
REMARK  5 active torsions:
REMARK  status: ('A' for Active; 'I' for Inactive)
REMARK    1  A    between atoms: C_2  and  C_4
REMARK    2  A    between atoms: C_7  and  C_9
REMARK    3  A    between atoms: C_9  and  C_10
REMARK    4  A    between atoms: C_13  and  S_14
REMARK    5  A    between atoms: S_14  and  N_17
REMARK                            x       y       z     vdW  Elec       q    Type
REMARK                         _______ _______ _______ _____ _____    ______ ____
ROOT
ATOM      1  C   UNL     1       5.299  -1.347  -0.262  0.00  0.00    +0.276 C 
ATOM      2  O   UNL     1       6.164  -0.389   0.332  0.00  0.00    -0.476 OA
ATOM      3  C   UNL     1       5.642   0.856   0.224  0.00  0.00    +0.143 A 
ATOM      4  C   UNL     1       4.275   1.099   0.164  0.00  0.00    +0.078 A 
ATOM      5  C   UNL     1       3.793   2.396   0.085  0.00  0.00    +0.027 A 
ATOM      6  C   UNL     1       4.674   3.460   0.057  0.00  0.00    +0.002 A 
ATOM      7  C   UNL     1       6.036   3.226   0.107  0.00  0.00    +0.004 A 
ATOM      8  N   UNL     1       3.365   0.024   0.181  0.00  0.00    -0.264 N 
ATOM      9  C   UNL     1       2.047   0.205  -0.031  0.00  0.00    +0.225 C 
ATOM     10  O   UNL     1       1.629   1.295  -0.360  0.00  0.00    -0.275 OA
ATOM     11  C   UNL     1       6.520   1.937   0.190  0.00  0.00    +0.047 A 
ATOM     12  C   UNL     1       3.935  -1.312   0.443  0.00  0.00    +0.168 C 
ENDROOT
BRANCH   1  16
ATOM     13  N   UNL     1       5.303  -3.780  -0.704  0.00  0.00    -0.326 N 
ATOM     14  H   UNL     1       4.483  -3.659  -1.208  0.00  0.00    +0.145 HD
ATOM     15  H   UNL     1       5.691  -4.665  -0.616  0.00  0.00    +0.145 HD
ATOM     16  C   UNL     1       5.901  -2.721  -0.124  0.00  0.00    +0.253 C 
ATOM     17  O   UNL     1       6.924  -2.874   0.510  0.00  0.00    -0.272 OA
ENDBRANCH   1  16
BRANCH   9  18
ATOM     18  C   UNL     1       1.090  -0.947   0.142  0.00  0.00    +0.138 C 
BRANCH  18  19
ATOM     19  C   UNL     1      -0.300  -0.506  -0.235  0.00  0.00    +0.000 A 
ATOM     20  S   UNL     1      -1.573   0.205   0.795  0.00  0.00    -0.073 S 
ATOM     21  C   UNL     1      -2.831   0.401  -0.457  0.00  0.00    +0.143 A 
ATOM     22  C   UNL     1      -2.209  -0.087  -1.558  0.00  0.00    +0.036 A 
ATOM     23  C   UNL     1      -0.912  -0.552  -1.444  0.00  0.00    +0.013 A 
BRANCH  21  24
ATOM     24  S   UNL     1      -4.460   1.054  -0.301  0.00  0.00    +0.067 S 
ATOM     25  O   UNL     1      -4.835   1.471  -1.607  0.00  0.00    -0.152 OA
ATOM     26  O   UNL     1      -4.434   1.884   0.852  0.00  0.00    -0.152 OA
BRANCH  24  27
ATOM     27  N   UNL     1      -5.465  -0.207   0.075  0.00  0.00    -0.172 NA
ATOM     28  C   UNL     1      -6.133  -0.992  -0.977  0.00  0.00    +0.137 C 
ATOM     29  C   UNL     1      -7.607  -1.144  -0.602  0.00  0.00    +0.177 C 
ATOM     30  O   UNL     1      -7.715  -1.725   0.697  0.00  0.00    -0.377 OA
ATOM     31  C   UNL     1      -7.241  -0.767   1.642  0.00  0.00    +0.177 C 
ATOM     32  C   UNL     1      -5.729  -0.584   1.474  0.00  0.00    +0.137 C 
ENDBRANCH  24  27
ENDBRANCH  21  24
ENDBRANCH  18  19
ENDBRANCH   9  18
TORSDOF 5
