REMARK  Name = m271
REMARK  8 active torsions:
REMARK  status: ('A' for Active; 'I' for Inactive)
REMARK    1  A    between atoms: C_1  and  C_2
REMARK    2  A    between atoms: C_8  and  C_10
REMARK    3  A    between atoms: N_14  and  S_15
REMARK    4  A    between atoms: S_15  and  C_18
REMARK    5  A    between atoms: C_19  and  C_20
REMARK    6  A    between atoms: N_22  and  C_23
REMARK    7  A    between atoms: C_23  and  C_24
REMARK    8  A    between atoms: C_35  and  C_36
REMARK                            x       y       z     vdW  Elec       q    Type
REMARK                         _______ _______ _______ _____ _____    ______ ____
ROOT
ATOM      1  S   UNL     1       0.356   2.075   0.018  0.00  0.00    +0.064 S 
ATOM      2  O   UNL     1      -0.194   2.925  -0.980  0.00  0.00    -0.153 OA
ATOM      3  O   UNL     1       1.022   2.512   1.195  0.00  0.00    -0.153 OA
ENDROOT
BRANCH   1   4
ATOM      4  C   UNL     1      -0.976   1.062   0.570  0.00  0.00    +0.149 A 
ATOM      5  C   UNL     1      -2.107   0.787  -0.121  0.00  0.00    +0.063 A 
ATOM      6  C   UNL     1      -2.449   1.288  -1.500  0.00  0.00    +0.067 C 
ATOM      7  N   UNL     1      -2.869  -0.023   0.644  0.00  0.00    -0.258 N 
ATOM      8  N   UNL     1      -2.188  -0.247   1.847  0.00  0.00    -0.174 NA
ATOM      9  C   UNL     1      -1.053   0.404   1.802  0.00  0.00    +0.087 A 
ATOM     10  C   UNL     1      -0.011   0.439   2.889  0.00  0.00    +0.069 C 
BRANCH   7  11
ATOM     11  C   UNL     1      -4.179  -0.568   0.281  0.00  0.00    +0.239 C 
BRANCH  11  12
ATOM     12  C   UNL     1      -5.260   0.384   0.726  0.00  0.00    +0.241 C 
ATOM     13  N   UNL     1      -6.554   0.088   0.497  0.00  0.00    -0.269 N 
ATOM     14  C   UNL     1      -7.011  -1.065  -0.148  0.00  0.00    +0.040 A 
ATOM     15  C   UNL     1      -8.394  -1.089  -0.232  0.00  0.00    -0.024 A 
ATOM     16  C   UNL     1      -9.042  -2.152  -0.832  0.00  0.00    +0.005 A 
ATOM     17  C   UNL     1      -8.312  -3.206  -1.351  0.00  0.00    +0.000 A 
ATOM     18  C   UNL     1      -6.932  -3.194  -1.267  0.00  0.00    +0.002 A 
ATOM     19  C   UNL     1      -8.937   0.170   0.406  0.00  0.00    +0.056 C 
ATOM     20  C   UNL     1      -6.282  -2.136  -0.669  0.00  0.00    +0.024 A 
ATOM     21  C   UNL     1      -7.689   0.932   0.881  0.00  0.00    +0.118 C 
ATOM     22  O   UNL     1      -4.964   1.416   1.290  0.00  0.00    -0.273 OA
ENDBRANCH  11  12
ENDBRANCH   7  11
ENDBRANCH   1   4
BRANCH   1  25
ATOM     23  C   UNL     1       3.851   0.777  -0.731  0.00  0.00    +0.091 C 
ATOM     24  C   UNL     1       2.526   0.442  -0.038  0.00  0.00    +0.122 C 
ATOM     25  N   UNL     1       1.432   1.093  -0.770  0.00  0.00    -0.176 NA
ATOM     26  C   UNL     1       1.309   0.856  -2.215  0.00  0.00    +0.109 C 
ATOM     27  C   UNL     1       2.647   1.186  -2.884  0.00  0.00    +0.018 C 
ATOM     28  C   UNL     1       3.762   0.385  -2.208  0.00  0.00    +0.015 C 
BRANCH  23  35
ATOM     29  C   UNL     1      10.928  -1.329  -0.553  0.00  0.00    +0.044 C 
ATOM     30  C   UNL     1       9.530  -1.367   0.008  0.00  0.00    -0.046 A 
ATOM     31  C   UNL     1       8.531  -0.575  -0.529  0.00  0.00    +0.047 A 
ATOM     32  C   UNL     1       7.251  -0.642   0.012  0.00  0.00    +0.125 A 
ATOM     33  N   UNL     1       6.234   0.147  -0.522  0.00  0.00    -0.270 N 
ATOM     34  H   UNL     1       6.435   0.793  -1.217  0.00  0.00    +0.156 HD
ATOM     35  C   UNL     1       4.970   0.011  -0.073  0.00  0.00    +0.223 C 
ATOM     36  O   UNL     1       4.734  -0.727   0.859  0.00  0.00    -0.275 OA
ATOM     37  N   UNL     1       6.992  -1.443   1.033  0.00  0.00    -0.240 NA
ATOM     38  C   UNL     1       7.927  -2.205   1.569  0.00  0.00    +0.113 A 
ATOM     39  C   UNL     1       9.217  -2.194   1.078  0.00  0.00    +0.023 A 
ENDBRANCH  23  35
ENDBRANCH   1  25
TORSDOF 5
