REMARK  Name = m272
REMARK  8 active torsions:
REMARK  status: ('A' for Active; 'I' for Inactive)
REMARK    1  A    between atoms: C_1  and  O_2
REMARK    2  A    between atoms: O_2  and  C_3
REMARK    3  A    between atoms: C_6  and  C_7
REMARK    4  A    between atoms: C_11  and  C_12
REMARK    5  A    between atoms: C_14  and  N_15
REMARK    6  A    between atoms: C_18  and  C_19
REMARK    7  A    between atoms: N_21  and  C_22
REMARK    8  A    between atoms: C_22  and  C_23
REMARK                            x       y       z     vdW  Elec       q    Type
REMARK                         _______ _______ _______ _____ _____    ______ ____
ROOT
ATOM      1  N   UNL     1       0.786   0.821   0.216  0.00  0.00    -0.315 N 
ATOM      2  C   UNL     1      -0.288   0.621  -0.766  0.00  0.00    +0.107 C 
ATOM      3  C   UNL     1      -1.636   0.690  -0.051  0.00  0.00    +0.031 C 
ATOM      4  C   UNL     1      -1.648  -0.311   1.107  0.00  0.00    +0.078 C 
ATOM      5  C   UNL     1      -0.549   0.051   2.108  0.00  0.00    +0.031 C 
ATOM      6  C   UNL     1       0.815  -0.029   1.415  0.00  0.00    +0.107 C 
ENDROOT
BRANCH   1  15
ATOM      7  C   UNL     1       5.025   0.426  -0.209  0.00  0.00    +0.095 A 
ATOM      8  N   UNL     1       3.730   0.218  -0.053  0.00  0.00    -0.163 NA
ATOM      9  N   UNL     1       3.067   1.449  -0.092  0.00  0.00    -0.200 N 
ATOM     10  C   UNL     1       4.008   2.428  -0.287  0.00  0.00    +0.158 A 
ATOM     11  N   UNL     1       3.644   3.717  -0.369  0.00  0.00    -0.233 NA
ATOM     12  C   UNL     1       2.383   4.073  -0.265  0.00  0.00    +0.044 A 
ATOM     13  C   UNL     1       1.393   3.111  -0.066  0.00  0.00    +0.066 A 
ATOM     14  C   UNL     1       2.005   5.528  -0.361  0.00  0.00    +0.066 C 
ATOM     15  C   UNL     1       1.746   1.791   0.020  0.00  0.00    +0.127 A 
ATOM     16  C   UNL     1       5.241   1.799  -0.363  0.00  0.00    +0.078 A 
BRANCH   7  20
ATOM     17  C   UNL     1       8.035  -2.579  -0.257  0.00  0.00    +0.120 A 
ATOM     18  C   UNL     1       8.110  -1.510  -1.139  0.00  0.00    +0.046 A 
ATOM     19  C   UNL     1       7.133  -0.536  -1.129  0.00  0.00    +0.013 A 
ATOM     20  C   UNL     1       6.075  -0.622  -0.226  0.00  0.00    +0.002 A 
ATOM     21  C   UNL     1       6.005  -1.695   0.661  0.00  0.00    +0.013 A 
ATOM     22  C   UNL     1       6.982  -2.667   0.644  0.00  0.00    +0.046 A 
BRANCH  17  24
ATOM     23  C   UNL     1       9.928  -3.175  -1.292  0.00  0.00    +0.277 C 
ATOM     24  O   UNL     1       8.997  -3.539  -0.272  0.00  0.00    -0.495 OA
ENDBRANCH  17  24
ENDBRANCH   7  20
ENDBRANCH   1  15
BRANCH   4  25
ATOM     25  C   UNL     1      -2.988  -0.266   1.795  0.00  0.00    +0.216 C 
ATOM     26  N   UNL     1      -4.110  -0.551   1.104  0.00  0.00    -0.311 N 
ATOM     27  H   UNL     1      -4.055  -0.785   0.164  0.00  0.00    +0.149 HD
ATOM     28  O   UNL     1      -3.058   0.027   2.970  0.00  0.00    -0.276 OA
BRANCH  26  29
ATOM     29  C   UNL     1      -5.413  -0.507   1.773  0.00  0.00    +0.139 C 
BRANCH  29  30
ATOM     30  C   UNL     1      -6.496  -0.864   0.787  0.00  0.00    -0.027 A 
ATOM     31  C   UNL     1      -7.107   0.130   0.045  0.00  0.00    +0.054 A 
ATOM     32  C   UNL     1      -8.099  -0.196  -0.865  0.00  0.00    +0.167 A 
ATOM     33  O   UNL     1      -8.845   0.578  -1.707  0.00  0.00    -0.453 OA
ATOM     34  C   UNL     1      -9.970  -0.238  -2.084  0.00  0.00    +0.466 C 
ATOM     35  O   UNL     1      -9.473  -1.583  -1.964  0.00  0.00    -0.453 OA
ATOM     36  C   UNL     1      -8.485  -1.525  -1.023  0.00  0.00    +0.166 A 
ATOM     37  C   UNL     1      -7.872  -2.515  -0.273  0.00  0.00    +0.050 A 
ATOM     38  C   UNL     1      -6.879  -2.183   0.630  0.00  0.00    +0.009 A 
ENDBRANCH  29  30
ENDBRANCH  26  29
ENDBRANCH   4  25
TORSDOF 6
