REMARK  Name = m273
REMARK  5 active torsions:
REMARK  status: ('A' for Active; 'I' for Inactive)
REMARK    1  A    between atoms: C_1  and  C_2
REMARK    2  A    between atoms: N_11  and  C_12
REMARK    3  A    between atoms: C_12  and  C_13
REMARK    4  A    between atoms: N_23  and  C_24
REMARK    5  A    between atoms: C_26  and  C_27
REMARK                            x       y       z     vdW  Elec       q    Type
REMARK                         _______ _______ _______ _____ _____    ______ ____
ROOT
ATOM      1  C   UNL     1       5.456   2.418  -0.043  0.00  0.00    +0.064 C 
ATOM      2  C   UNL     1       4.629   1.193  -0.337  0.00  0.00    +0.056 C 
ATOM      3  C   UNL     1       3.142   1.282  -0.133  0.00  0.00    +0.133 C 
ATOM      4  C   UNL     1       2.852   1.911   1.232  0.00  0.00    +0.037 C 
ATOM      5  N   UNL     1       2.554  -0.054  -0.187  0.00  0.00    -0.297 N 
ATOM      6  C   UNL     1       3.249  -1.154  -0.623  0.00  0.00    +0.219 A 
ATOM      7  N   UNL     1       2.476  -2.213  -0.570  0.00  0.00    -0.195 NA
ATOM      8  C   UNL     1       1.284  -1.870  -0.108  0.00  0.00    +0.170 A 
ATOM      9  N   UNL     1       0.133  -2.606   0.136  0.00  0.00    -0.279 N 
ATOM     10  C   UNL     1       0.080  -4.047  -0.123  0.00  0.00    +0.155 C 
ATOM     11  C   UNL     1      -0.939  -1.938   0.622  0.00  0.00    +0.334 A 
ATOM     12  O   UNL     1      -1.958  -2.563   0.844  0.00  0.00    -0.246 OA
ATOM     13  N   UNL     1      -0.931  -0.620   0.872  0.00  0.00    -0.255 N 
ATOM     14  C   UNL     1       0.158   0.157   0.656  0.00  0.00    +0.283 A 
ATOM     15  O   UNL     1       0.148   1.354   0.888  0.00  0.00    -0.265 OA
ATOM     16  N   UNL     1       4.564  -1.048  -1.033  0.00  0.00    -0.206 N 
ATOM     17  H   UNL     1       5.006  -1.771  -1.505  0.00  0.00    +0.177 HD
ATOM     18  C   UNL     1       1.303  -0.489   0.149  0.00  0.00    +0.153 A 
ATOM     19  N   UNL     1       5.232   0.151  -0.737  0.00  0.00    -0.187 NA
ENDROOT
BRANCH  13  20
ATOM     20  C   UNL     1      -2.148   0.003   1.398  0.00  0.00    +0.169 C 
BRANCH  20  21
ATOM     21  C   UNL     1      -3.009   0.470   0.253  0.00  0.00    +0.026 A 
ATOM     22  C   UNL     1      -2.856   1.749  -0.252  0.00  0.00    +0.049 A 
ATOM     23 CL   UNL     1      -1.667   2.814   0.431  0.00  0.00    -0.083 Cl
ATOM     24  C   UNL     1      -3.643   2.176  -1.307  0.00  0.00    +0.020 A 
ATOM     25  C   UNL     1      -4.590   1.328  -1.850  0.00  0.00    +0.004 A 
ATOM     26  C   UNL     1      -4.748   0.051  -1.344  0.00  0.00    +0.039 A 
ATOM     27  C   UNL     1      -3.957  -0.379  -0.292  0.00  0.00    +0.130 A 
ATOM     28  F   UNL     1      -4.112  -1.626   0.203  0.00  0.00    -0.205 F 
ENDBRANCH  20  21
ENDBRANCH  13  20
TORSDOF 2
