REMARK  Name = m274
REMARK  4 active torsions:
REMARK  status: ('A' for Active; 'I' for Inactive)
REMARK    1  A    between atoms: C_2  and  C_3
REMARK    2  A    between atoms: C_8  and  C_9
REMARK    3  A    between atoms: C_21  and  C_23
REMARK    4  A    between atoms: C_23  and  O_24
REMARK                            x       y       z     vdW  Elec       q    Type
REMARK                         _______ _______ _______ _____ _____    ______ ____
ROOT
ATOM      1  C   UNL     1       0.761  -1.487   0.440  0.00  0.00    +0.082 A 
ATOM      2  C   UNL     1       2.071  -1.035  -0.036  0.00  0.00    +0.110 A 
ATOM      3  N   UNL     1       2.768  -2.112  -0.322  0.00  0.00    -0.173 NA
ATOM      4  N   UNL     1       1.985  -3.242  -0.070  0.00  0.00    -0.283 N 
ATOM      5  H   UNL     1       2.269  -4.160  -0.205  0.00  0.00    +0.188 HD
ATOM      6  C   UNL     1       0.781  -2.866   0.387  0.00  0.00    +0.118 A 
ENDROOT
BRANCH   1   8
ATOM      7  O   UNL     1      -0.147   0.323   1.597  0.00  0.00    -0.270 OA
ATOM      8  C   UNL     1      -0.358  -0.638   0.882  0.00  0.00    +0.250 C 
ATOM      9  N   UNL     1      -1.617  -0.928   0.497  0.00  0.00    -0.294 N 
ATOM     10  C   UNL     1      -2.758  -0.179   1.042  0.00  0.00    +0.150 C 
ATOM     11  C   UNL     1      -3.588   0.368  -0.129  0.00  0.00    +0.150 C 
ATOM     12  F   UNL     1      -2.833   1.303  -0.844  0.00  0.00    -0.238 F 
ATOM     13  C   UNL     1      -3.979  -0.788  -1.053  0.00  0.00    +0.046 C 
ATOM     14  C   UNL     1      -2.716  -1.439  -1.621  0.00  0.00    +0.022 C 
ATOM     15  C   UNL     1      -1.875  -2.002  -0.471  0.00  0.00    +0.108 C 
BRANCH  11  16
ATOM     16  C   UNL     1      -4.852   1.039   0.412  0.00  0.00    +0.197 C 
BRANCH  16  17
ATOM     17  O   UNL     1      -4.487   2.118   1.275  0.00  0.00    -0.392 OA
ATOM     18  H   UNL     1      -5.310   2.512   1.594  0.00  0.00    +0.210 HD
ENDBRANCH  16  17
ENDBRANCH  11  16
ENDBRANCH   1   8
BRANCH   2  19
ATOM     19  C   UNL     1       2.528   0.369  -0.162  0.00  0.00    +0.073 A 
ATOM     20  C   UNL     1       1.660   1.348  -0.647  0.00  0.00    +0.135 A 
ATOM     21  F   UNL     1       0.397   1.020  -0.998  0.00  0.00    -0.205 F 
ATOM     22  C   UNL     1       2.091   2.658  -0.756  0.00  0.00    +0.039 A 
ATOM     23  C   UNL     1       3.382   2.996  -0.397  0.00  0.00    +0.006 A 
ATOM     24  C   UNL     1       4.250   2.030   0.079  0.00  0.00    +0.039 A 
ATOM     25  C   UNL     1       3.831   0.718   0.199  0.00  0.00    +0.135 A 
ATOM     26  F   UNL     1       4.680  -0.225   0.663  0.00  0.00    -0.205 F 
ENDBRANCH   2  19
TORSDOF 4
