REMARK  Name = m275
REMARK  8 active torsions:
REMARK  status: ('A' for Active; 'I' for Inactive)
REMARK    1  A    between atoms: C_1  and  N_2
REMARK    2  A    between atoms: N_2  and  C_3
REMARK    3  A    between atoms: C_3  and  C_4
REMARK    4  A    between atoms: C_4  and  O_5
REMARK    5  A    between atoms: C_6  and  C_8
REMARK    6  A    between atoms: C_16  and  C_17
REMARK    7  A    between atoms: C_20  and  C_22
REMARK    8  A    between atoms: N_25  and  C_26
REMARK                            x       y       z     vdW  Elec       q    Type
REMARK                         _______ _______ _______ _____ _____    ______ ____
ROOT
ATOM      1  C   UNL     1      -1.999  -0.195  -0.167  0.00  0.00    +0.082 A 
ATOM      2  C   UNL     1      -0.989   0.426  -0.831  0.00  0.00    +0.011 A 
ATOM      3  C   UNL     1      -1.026   1.819  -1.017  0.00  0.00    +0.014 A 
ATOM      4  C   UNL     1      -2.151   2.479  -0.464  0.00  0.00    +0.109 A 
ATOM      5  N   UNL     1      -2.324   3.779  -0.552  0.00  0.00    -0.248 NA
ATOM      6  C   UNL     1      -1.445   4.545  -1.169  0.00  0.00    +0.112 A 
ATOM      7  C   UNL     1      -0.310   3.991  -1.743  0.00  0.00    +0.020 A 
ATOM      8  C   UNL     1      -0.084   2.648  -1.680  0.00  0.00    +0.012 A 
ATOM      9  S   UNL     1      -3.084   1.154   0.264  0.00  0.00    -0.064 S 
ENDROOT
BRANCH   2  10
ATOM     10  C   UNL     1       0.165  -0.377  -1.374  0.00  0.00    +0.167 C 
ATOM     11  O   UNL     1      -0.334  -1.546  -2.023  0.00  0.00    -0.369 OA
ATOM     12  C   UNL     1       0.759  -2.168  -2.697  0.00  0.00    +0.179 C 
ATOM     13  C   UNL     1       1.740  -2.740  -1.668  0.00  0.00    +0.136 C 
ATOM     14  N   UNL     1       2.151  -1.648  -0.769  0.00  0.00    -0.292 N 
ATOM     15  C   UNL     1       3.447  -1.448  -0.458  0.00  0.00    +0.250 C 
ATOM     16  O   UNL     1       4.311  -2.114  -0.995  0.00  0.00    -0.270 OA
ATOM     17  C   UNL     1       1.091  -0.783  -0.222  0.00  0.00    +0.144 C 
BRANCH  15  18
ATOM     18  C   UNL     1       3.817  -0.421   0.533  0.00  0.00    +0.074 A 
ATOM     19  C   UNL     1       5.051   0.183   0.666  0.00  0.00    +0.121 A 
ATOM     20  N   UNL     1       4.964   1.056   1.682  0.00  0.00    -0.274 N 
ATOM     21  C   UNL     1       6.046   1.918   2.165  0.00  0.00    +0.172 C 
ATOM     22  N   UNL     1       3.667   1.001   2.206  0.00  0.00    -0.179 NA
ATOM     23  C   UNL     1       2.976   0.125   1.530  0.00  0.00    +0.147 A 
ENDBRANCH  15  18
ENDBRANCH   2  10
BRANCH   1  26
ATOM     24  C   UNL     1      -3.426  -3.492   1.047  0.00  0.00    +0.132 C 
ATOM     25  N   UNL     1      -3.300  -2.080   0.678  0.00  0.00    -0.298 N 
ATOM     26  C   UNL     1      -2.155  -1.626   0.130  0.00  0.00    +0.253 C 
ATOM     27  O   UNL     1      -1.251  -2.402  -0.119  0.00  0.00    -0.269 OA
BRANCH  25  28
ATOM     28  C   UNL     1      -4.417  -1.161   0.905  0.00  0.00    +0.135 C 
BRANCH  28  29
ATOM     29  C   UNL     1      -4.384  -0.665   2.352  0.00  0.00    +0.174 C 
BRANCH  29  30
ATOM     30  O   UNL     1      -3.205   0.115   2.562  0.00  0.00    -0.393 OA
ATOM     31  H   UNL     1      -3.223   0.407   3.483  0.00  0.00    +0.209 HD
ENDBRANCH  29  30
ENDBRANCH  28  29
ENDBRANCH  25  28
ENDBRANCH   1  26
TORSDOF 6
