REMARK  Name = m276
REMARK  7 active torsions:
REMARK  status: ('A' for Active; 'I' for Inactive)
REMARK    1  A    between atoms: C_1  and  C_2
REMARK    2  A    between atoms: C_2  and  C_3
REMARK    3  A    between atoms: C_3  and  O_4
REMARK    4  A    between atoms: O_4  and  C_5
REMARK    5  A    between atoms: C_8  and  C_9
REMARK    6  A    between atoms: C_16  and  C_17
REMARK    7  A    between atoms: C_26  and  C_27
REMARK                            x       y       z     vdW  Elec       q    Type
REMARK                         _______ _______ _______ _____ _____    ______ ____
ROOT
ATOM      1  C   UNL     1       1.212   1.663   0.825  0.00  0.00    +0.063 C 
ATOM      2  C   UNL     1       0.258   0.501   0.928  0.00  0.00    +0.023 A 
ATOM      3  C   UNL     1       0.461  -0.767   1.454  0.00  0.00    +0.066 A 
ATOM      4  N   UNL     1      -0.658  -1.445   1.339  0.00  0.00    -0.168 NA
ATOM      5  N   UNL     1      -1.618  -0.620   0.731  0.00  0.00    -0.198 N 
ATOM      6  C   UNL     1      -2.940  -0.969   0.439  0.00  0.00    +0.176 A 
ATOM      7  N   UNL     1      -3.732  -0.090  -0.129  0.00  0.00    -0.144 NA
ATOM      8  N   UNL     1      -5.054  -0.420  -0.434  0.00  0.00    -0.195 N 
ATOM      9  C   UNL     1      -5.539  -1.669  -0.131  0.00  0.00    +0.178 A 
ATOM     10  N   UNL     1      -6.803  -1.695  -0.523  0.00  0.00    -0.128 NA
ATOM     11  N   UNL     1      -7.111  -0.555  -1.038  0.00  0.00    -0.132 NA
ATOM     12  C   UNL     1      -4.690  -2.609   0.483  0.00  0.00    +0.054 A 
ATOM     13  C   UNL     1      -6.078   0.250  -1.005  0.00  0.00    +0.152 A 
ATOM     14  C   UNL     1      -6.040   1.669  -1.512  0.00  0.00    +0.090 C 
ATOM     15  C   UNL     1      -3.406  -2.257   0.762  0.00  0.00    +0.054 A 
ATOM     16  C   UNL     1       1.745  -1.279   2.053  0.00  0.00    +0.068 C 
ATOM     17  C   UNL     1      -1.035   0.571   0.480  0.00  0.00    +0.134 A 
ATOM     18  N   UNL     1      -1.546   1.722  -0.117  0.00  0.00    -0.270 N 
ATOM     19  H   UNL     1      -2.495   1.811  -0.297  0.00  0.00    +0.156 HD
ATOM     20  C   UNL     1      -0.683   2.708  -0.438  0.00  0.00    +0.219 C 
ATOM     21  O   UNL     1      -1.122   3.785  -0.781  0.00  0.00    -0.275 OA
ATOM     22  C   UNL     1       0.806   2.514  -0.384  0.00  0.00    +0.109 C 
ENDROOT
BRANCH   1  26
ATOM     23  C   UNL     1       5.196   0.213   0.293  0.00  0.00    +0.121 A 
ATOM     24  C   UNL     1       4.209  -0.114  -0.626  0.00  0.00    +0.046 A 
ATOM     25  C   UNL     1       2.921   0.352  -0.449  0.00  0.00    +0.008 A 
ATOM     26  C   UNL     1       2.617   1.152   0.637  0.00  0.00    -0.039 A 
ATOM     27  C   UNL     1       3.600   1.484   1.551  0.00  0.00    +0.008 A 
ATOM     28  C   UNL     1       4.889   1.016   1.381  0.00  0.00    +0.046 A 
BRANCH  23  29
ATOM     29  O   UNL     1       6.463  -0.248   0.124  0.00  0.00    -0.492 OA
BRANCH  29  30
ATOM     30  C   UNL     1       6.460  -1.035  -1.069  0.00  0.00    +0.229 C 
BRANCH  30  32
ATOM     31  C   UNL     1       7.862  -2.430  -2.596  0.00  0.00    +0.007 C 
ATOM     32  C   UNL     1       7.865  -1.588  -1.319  0.00  0.00    +0.038 C 
ENDBRANCH  30  32
ENDBRANCH  29  30
ENDBRANCH  23  29
ENDBRANCH   1  26
TORSDOF 4
