REMARK  Name = m277
REMARK  6 active torsions:
REMARK  status: ('A' for Active; 'I' for Inactive)
REMARK    1  A    between atoms: C_1  and  O_2
REMARK    2  A    between atoms: O_2  and  C_3
REMARK    3  A    between atoms: C_9  and  N_10
REMARK    4  A    between atoms: C_18  and  C_19
REMARK    5  A    between atoms: C_22  and  C_23
REMARK    6  A    between atoms: N_32  and  C_33
REMARK                            x       y       z     vdW  Elec       q    Type
REMARK                         _______ _______ _______ _____ _____    ______ ____
ROOT
ATOM      1  N   UNL     1       3.975   0.556   0.417  0.00  0.00    -0.266 N 
ATOM      2  H   UNL     1       4.242   1.460   0.644  0.00  0.00    +0.156 HD
ATOM      3  C   UNL     1       2.670   0.220   0.411  0.00  0.00    +0.307 C 
ATOM      4  N   UNL     1       1.745   1.101   0.843  0.00  0.00    -0.281 N 
ATOM      5  C   UNL     1       0.322   0.724   0.922  0.00  0.00    +0.148 C 
ATOM      6  C   UNL     1      -0.480   1.868   0.360  0.00  0.00    +0.023 A 
ATOM      7  C   UNL     1      -1.846   1.888   0.036  0.00  0.00    +0.154 A 
ATOM      8  N   UNL     1      -2.132   3.093  -0.423  0.00  0.00    -0.166 NA
ATOM      9  N   UNL     1      -0.957   3.859  -0.400  0.00  0.00    -0.270 N 
ATOM     10  C   UNL     1      -0.833   5.256  -0.823  0.00  0.00    +0.172 C 
ATOM     11  C   UNL     1       0.037   3.088   0.079  0.00  0.00    +0.046 A 
ATOM     12  C   UNL     1       1.482   3.470   0.282  0.00  0.00    +0.074 C 
ATOM     13  C   UNL     1       2.130   2.463   1.241  0.00  0.00    +0.116 C 
ATOM     14  O   UNL     1       2.326  -0.877   0.016  0.00  0.00    -0.252 OA
ENDROOT
BRANCH   1  16
ATOM     15  C   UNL     1       6.221   0.000  -0.295  0.00  0.00    +0.141 A 
ATOM     16  C   UNL     1       4.947  -0.402   0.096  0.00  0.00    +0.078 A 
ATOM     17  C   UNL     1       4.638  -1.753   0.159  0.00  0.00    +0.047 A 
ATOM     18  C   UNL     1       5.599  -2.696  -0.158  0.00  0.00    +0.043 A 
ATOM     19 CL   UNL     1       5.213  -4.387  -0.074  0.00  0.00    -0.083 Cl
ATOM     20  C   UNL     1       6.866  -2.296  -0.541  0.00  0.00    +0.024 A 
ATOM     21  C   UNL     1       7.178  -0.950  -0.610  0.00  0.00    +0.049 A 
BRANCH  15  23
ATOM     22  C   UNL     1       7.891   1.412  -0.781  0.00  0.00    +0.277 C 
ATOM     23  O   UNL     1       6.527   1.324  -0.362  0.00  0.00    -0.493 OA
ENDBRANCH  15  23
ENDBRANCH   1  16
BRANCH   7  24
ATOM     24  C   UNL     1      -2.793   0.763   0.182  0.00  0.00    +0.269 A 
ATOM     25  O   UNL     1      -4.107   0.781  -0.123  0.00  0.00    -0.414 OA
ATOM     26  C   UNL     1      -4.580  -0.449   0.163  0.00  0.00    +0.249 A 
ATOM     27  N   UNL     1      -3.576  -1.158   0.627  0.00  0.00    -0.107 NA
ATOM     28  N   UNL     1      -2.512  -0.436   0.639  0.00  0.00    -0.105 NA
BRANCH  26  29
ATOM     29  C   UNL     1      -5.972  -0.912  -0.009  0.00  0.00    +0.039 A 
ATOM     30  C   UNL     1      -6.943  -0.043  -0.511  0.00  0.00    +0.016 A 
ATOM     31  C   UNL     1      -8.239  -0.482  -0.675  0.00  0.00    +0.039 A 
ATOM     32  C   UNL     1      -8.583  -1.780  -0.331  0.00  0.00    +0.123 A 
ATOM     33  F   UNL     1      -9.856  -2.204  -0.487  0.00  0.00    -0.205 F 
ATOM     34  C   UNL     1      -7.624  -2.646   0.174  0.00  0.00    +0.039 A 
ATOM     35  C   UNL     1      -6.323  -2.219   0.336  0.00  0.00    +0.016 A 
ENDBRANCH  26  29
ENDBRANCH   7  24
TORSDOF 4
