REMARK  Name = m278
REMARK  8 active torsions:
REMARK  status: ('A' for Active; 'I' for Inactive)
REMARK    1  A    between atoms: C_1  and  C_2
REMARK    2  A    between atoms: C_2  and  C_3
REMARK    3  A    between atoms: C_3  and  O_4
REMARK    4  A    between atoms: O_4  and  C_5
REMARK    5  A    between atoms: C_6  and  O_7
REMARK    6  A    between atoms: O_7  and  C_8
REMARK    7  A    between atoms: C_12  and  C_13
REMARK    8  A    between atoms: C_29  and  C_30
REMARK                            x       y       z     vdW  Elec       q    Type
REMARK                         _______ _______ _______ _____ _____    ______ ____
ROOT
ATOM      1  C   UNL     1      -1.632   0.984   0.294  0.00  0.00    +0.066 C 
ATOM      2  C   UNL     1      -0.378   1.091  -0.534  0.00  0.00    +0.020 A 
ATOM      3  C   UNL     1      -0.199   1.595  -1.814  0.00  0.00    +0.141 A 
ATOM      4  N   UNL     1       1.071   1.485  -2.127  0.00  0.00    -0.171 NA
ATOM      5  N   UNL     1       1.748   0.902  -1.045  0.00  0.00    -0.198 N 
ATOM      6  C   UNL     1       3.116   0.618  -0.982  0.00  0.00    +0.176 A 
ATOM      7  N   UNL     1       3.615   0.074   0.102  0.00  0.00    -0.144 NA
ATOM      8  N   UNL     1       4.977  -0.222   0.183  0.00  0.00    -0.195 N 
ATOM      9  C   UNL     1       5.808   0.065  -0.873  0.00  0.00    +0.178 A 
ATOM     10  N   UNL     1       7.025  -0.314  -0.517  0.00  0.00    -0.128 NA
ATOM     11  N   UNL     1       6.986  -0.806   0.672  0.00  0.00    -0.132 NA
ATOM     12  C   UNL     1       5.271   0.654  -2.033  0.00  0.00    +0.054 A 
ATOM     13  C   UNL     1       5.761  -0.771   1.136  0.00  0.00    +0.152 A 
ATOM     14  C   UNL     1       5.309  -1.254   2.490  0.00  0.00    +0.090 C 
ATOM     15  C   UNL     1       3.939   0.925  -2.081  0.00  0.00    +0.054 A 
ATOM     16  C   UNL     1       0.840   0.665  -0.074  0.00  0.00    +0.134 A 
ATOM     17  N   UNL     1       0.991   0.101   1.192  0.00  0.00    -0.270 N 
ATOM     18  H   UNL     1       1.804  -0.368   1.436  0.00  0.00    +0.156 HD
ATOM     19  C   UNL     1      -0.030   0.226   2.067  0.00  0.00    +0.219 C 
ATOM     20  O   UNL     1       0.034  -0.358   3.128  0.00  0.00    -0.275 OA
ATOM     21  C   UNL     1      -1.241   1.064   1.773  0.00  0.00    +0.109 C 
ENDROOT
BRANCH   1  23
ATOM     22  C   UNL     1      -3.613  -0.356  -0.451  0.00  0.00    +0.166 A 
ATOM     23  C   UNL     1      -2.311  -0.333   0.020  0.00  0.00    +0.006 A 
ATOM     24  C   UNL     1      -1.638  -1.519   0.249  0.00  0.00    +0.008 A 
ATOM     25  C   UNL     1      -2.257  -2.729  -0.003  0.00  0.00    +0.004 A 
ATOM     26  C   UNL     1      -3.556  -2.759  -0.478  0.00  0.00    +0.049 A 
ATOM     27  C   UNL     1      -4.238  -1.574  -0.704  0.00  0.00    +0.162 A 
BRANCH  27  28
ATOM     28  O   UNL     1      -5.514  -1.602  -1.171  0.00  0.00    -0.491 OA
ATOM     29  C   UNL     1      -5.868  -2.978  -1.327  0.00  0.00    +0.277 C 
ENDBRANCH  27  28
BRANCH  22  30
ATOM     30  O   UNL     1      -4.279   0.809  -0.671  0.00  0.00    -0.488 OA
BRANCH  30  31
ATOM     31  C   UNL     1      -4.951   1.138   0.547  0.00  0.00    +0.229 C 
BRANCH  31  33
ATOM     32  C   UNL     1      -6.442   2.797   1.671  0.00  0.00    +0.007 C 
ATOM     33  C   UNL     1      -5.723   2.446   0.367  0.00  0.00    +0.038 C 
ENDBRANCH  31  33
ENDBRANCH  30  31
ENDBRANCH  22  30
ENDBRANCH   1  23
TORSDOF 5
