REMARK  Name = m279
REMARK  6 active torsions:
REMARK  status: ('A' for Active; 'I' for Inactive)
REMARK    1  A    between atoms: C_1  and  C_2
REMARK    2  A    between atoms: C_2  and  O_3
REMARK    3  A    between atoms: O_3  and  C_4
REMARK    4  A    between atoms: C_7  and  C_8
REMARK    5  A    between atoms: C_15  and  C_16
REMARK    6  A    between atoms: C_25  and  C_26
REMARK                            x       y       z     vdW  Elec       q    Type
REMARK                         _______ _______ _______ _____ _____    ______ ____
ROOT
ATOM      1  C   UNL     1       1.582  -1.376  -0.911  0.00  0.00    +0.063 C 
ATOM      2  C   UNL     1       0.584  -0.248  -0.865  0.00  0.00    +0.023 A 
ATOM      3  C   UNL     1       0.754   1.098  -1.160  0.00  0.00    +0.066 A 
ATOM      4  N   UNL     1      -0.397   1.706  -0.989  0.00  0.00    -0.168 NA
ATOM      5  N   UNL     1      -1.346   0.756  -0.576  0.00  0.00    -0.198 N 
ATOM      6  C   UNL     1      -2.693   1.004  -0.295  0.00  0.00    +0.176 A 
ATOM      7  N   UNL     1      -3.469   0.014   0.077  0.00  0.00    -0.144 NA
ATOM      8  N   UNL     1      -4.816   0.240   0.368  0.00  0.00    -0.195 N 
ATOM      9  C   UNL     1      -5.342   1.504   0.254  0.00  0.00    +0.178 A 
ATOM     10  N   UNL     1      -6.621   1.418   0.582  0.00  0.00    -0.128 NA
ATOM     11  N   UNL     1      -6.901   0.198   0.883  0.00  0.00    -0.132 NA
ATOM     12  C   UNL     1      -4.509   2.563  -0.151  0.00  0.00    +0.054 A 
ATOM     13  C   UNL     1      -5.833  -0.553   0.767  0.00  0.00    +0.152 A 
ATOM     14  C   UNL     1      -5.756  -2.035   1.030  0.00  0.00    +0.090 C 
ATOM     15  C   UNL     1      -3.200   2.310  -0.421  0.00  0.00    +0.054 A 
ATOM     16  C   UNL     1       2.039   1.749  -1.601  0.00  0.00    +0.068 C 
ATOM     17  C   UNL     1      -0.722  -0.439  -0.500  0.00  0.00    +0.134 A 
ATOM     18  N   UNL     1      -1.209  -1.691  -0.130  0.00  0.00    -0.270 N 
ATOM     19  H   UNL     1      -2.160  -1.843  -0.014  0.00  0.00    +0.156 HD
ATOM     20  C   UNL     1      -0.318  -2.687   0.064  0.00  0.00    +0.219 C 
ATOM     21  O   UNL     1      -0.724  -3.821   0.200  0.00  0.00    -0.275 OA
ATOM     22  C   UNL     1       1.163  -2.433   0.116  0.00  0.00    +0.109 C 
ENDROOT
BRANCH   1  26
ATOM     23  C   UNL     1       5.473   0.104   0.053  0.00  0.00    +0.121 A 
ATOM     24  C   UNL     1       4.435   0.235   0.964  0.00  0.00    +0.046 A 
ATOM     25  C   UNL     1       3.176  -0.239   0.647  0.00  0.00    +0.008 A 
ATOM     26  C   UNL     1       2.954  -0.854  -0.571  0.00  0.00    -0.039 A 
ATOM     27  C   UNL     1       3.989  -0.992  -1.478  0.00  0.00    +0.008 A 
ATOM     28  C   UNL     1       5.248  -0.514  -1.168  0.00  0.00    +0.046 A 
BRANCH  23  29
ATOM     29  O   UNL     1       6.711   0.575   0.360  0.00  0.00    -0.492 OA
BRANCH  29  31
ATOM     30  C   UNL     1       7.990   1.699   2.074  0.00  0.00    +0.048 C 
ATOM     31  C   UNL     1       6.623   1.147   1.666  0.00  0.00    +0.225 C 
ENDBRANCH  29  31
ENDBRANCH  23  29
ENDBRANCH   1  26
TORSDOF 3
