REMARK  Name = m280
REMARK  7 active torsions:
REMARK  status: ('A' for Active; 'I' for Inactive)
REMARK    1  A    between atoms: C_1  and  O_2
REMARK    2  A    between atoms: O_2  and  C_3
REMARK    3  A    between atoms: C_3  and  C_5
REMARK    4  A    between atoms: C_7  and  C_8
REMARK    5  A    between atoms: N_16  and  C_17
REMARK    6  A    between atoms: C_17  and  C_18
REMARK    7  A    between atoms: N_26  and  C_27
REMARK                            x       y       z     vdW  Elec       q    Type
REMARK                         _______ _______ _______ _____ _____    ______ ____
ROOT
ATOM      1  C   UNL     1       1.460   1.975   0.082  0.00  0.00    +0.077 A 
ATOM      2  C   UNL     1       0.605   0.896   0.359  0.00  0.00    +0.096 A 
ATOM      3  C   UNL     1      -0.796   1.096   0.766  0.00  0.00    +0.267 A 
ATOM      4  N   UNL     1      -1.554   0.002   1.003  0.00  0.00    -0.256 N 
ATOM      5  C   UNL     1      -1.047  -1.234   0.872  0.00  0.00    +0.338 A 
ATOM      6  N   UNL     1       0.225  -1.467   0.509  0.00  0.00    -0.246 N 
ATOM      7  O   UNL     1      -1.771  -2.184   1.096  0.00  0.00    -0.246 OA
ATOM      8  O   UNL     1      -1.259   2.214   0.885  0.00  0.00    -0.267 OA
ATOM      9  C   UNL     1       1.088  -0.418   0.236  0.00  0.00    +0.155 A 
ATOM     10  N   UNL     1       2.341  -0.633  -0.128  0.00  0.00    -0.233 NA
ATOM     11  C   UNL     1       3.169   0.358  -0.389  0.00  0.00    +0.048 A 
ATOM     12  C   UNL     1       2.771   1.682  -0.297  0.00  0.00    +0.039 A 
ENDROOT
BRANCH   6  13
ATOM     13  C   UNL     1       0.681  -2.786   0.393  0.00  0.00    +0.053 A 
ATOM     14  C   UNL     1       1.955  -3.123   0.830  0.00  0.00    +0.026 A 
ATOM     15  C   UNL     1       2.400  -4.426   0.720  0.00  0.00    +0.002 A 
ATOM     16  C   UNL     1       1.582  -5.392   0.165  0.00  0.00    +0.000 A 
ATOM     17  C   UNL     1       0.314  -5.059  -0.276  0.00  0.00    +0.002 A 
ATOM     18  C   UNL     1      -0.138  -3.759  -0.163  0.00  0.00    +0.026 A 
ENDBRANCH   6  13
BRANCH  11  19
ATOM     19  C   UNL     1       4.585   0.043  -0.798  0.00  0.00    +0.038 C 
ATOM     20  C   UNL     1       5.396   1.162  -1.456  0.00  0.00    +0.010 C 
ATOM     21  C   UNL     1       4.892  -0.012  -2.296  0.00  0.00    +0.010 C 
ENDBRANCH  11  19
BRANCH   1  22
ATOM     22  C   UNL     1       0.989   3.375   0.194  0.00  0.00    +0.340 C 
ATOM     23  O   UNL     1      -0.021   3.724  -0.382  0.00  0.00    -0.245 OA
BRANCH  22  25
ATOM     24  C   UNL     1       1.219   5.633   1.046  0.00  0.00    +0.280 C 
ATOM     25  O   UNL     1       1.681   4.261   0.936  0.00  0.00    -0.464 OA
ENDBRANCH  22  25
ENDBRANCH   1  22
BRANCH   4  26
ATOM     26  C   UNL     1      -2.952   0.169   1.409  0.00  0.00    +0.165 C 
BRANCH  26  27
ATOM     27  C   UNL     1      -3.830   0.206   0.184  0.00  0.00    -0.025 A 
ATOM     28  C   UNL     1      -4.123   1.408  -0.443  0.00  0.00    +0.025 A 
ATOM     29  C   UNL     1      -4.927   1.403  -1.566  0.00  0.00    +0.111 A 
ATOM     30  N   UNL     1      -5.422   0.275  -2.037  0.00  0.00    -0.263 NA
ATOM     31  C   UNL     1      -5.169  -0.885  -1.463  0.00  0.00    +0.111 A 
ATOM     32  C   UNL     1      -4.368  -0.959  -0.339  0.00  0.00    +0.025 A 
ENDBRANCH  26  27
ENDBRANCH   4  26
TORSDOF 6
