REMARK  Name = m281
REMARK  6 active torsions:
REMARK  status: ('A' for Active; 'I' for Inactive)
REMARK    1  A    between atoms: C_1  and  C_2
REMARK    2  A    between atoms: C_4  and  C_5
REMARK    3  A    between atoms: C_7  and  C_8
REMARK    4  A    between atoms: C_16  and  S_17
REMARK    5  A    between atoms: S_17  and  N_20
REMARK    6  A    between atoms: N_23  and  C_24
REMARK                            x       y       z     vdW  Elec       q    Type
REMARK                         _______ _______ _______ _____ _____    ______ ____
ROOT
ATOM      1  C   UNL     1       0.546  -2.756   1.533  0.00  0.00    +0.053 C 
ATOM      2  C   UNL     1      -0.499  -1.925   0.834  0.00  0.00    +0.014 A 
ATOM      3  C   UNL     1      -0.414  -1.269  -0.352  0.00  0.00    +0.116 A 
ATOM      4  C   UNL     1      -1.507  -0.565  -0.810  0.00  0.00    +0.046 A 
ATOM      5  C   UNL     1      -2.642  -0.542  -0.044  0.00  0.00    +0.041 A 
ATOM      6  S   UNL     1      -2.163  -1.544   1.354  0.00  0.00    -0.090 S 
ENDROOT
BRANCH   5   7
ATOM      7  C   UNL     1      -3.929   0.137  -0.307  0.00  0.00    +0.100 A 
ATOM      8  N   UNL     1      -4.218   0.871  -1.363  0.00  0.00    -0.173 NA
ATOM      9  N   UNL     1      -5.535   1.327  -1.229  0.00  0.00    -0.273 N 
ATOM     10  H   UNL     1      -6.011   1.887  -1.863  0.00  0.00    +0.189 HD
ATOM     11  C   UNL     1      -6.027   0.856  -0.063  0.00  0.00    +0.139 A 
ATOM     12  C   UNL     1      -5.064   0.119   0.530  0.00  0.00    +0.062 A 
BRANCH  11  13
ATOM     13  C   UNL     1      -7.410   1.108   0.481  0.00  0.00    +0.434 C 
ATOM     14  F   UNL     1      -7.313   1.754   1.718  0.00  0.00    -0.164 F 
ATOM     15  F   UNL     1      -8.077  -0.111   0.643  0.00  0.00    -0.164 F 
ATOM     16  F   UNL     1      -8.123   1.915  -0.412  0.00  0.00    -0.164 F 
ENDBRANCH  11  13
ENDBRANCH   5   7
BRANCH   3  17
ATOM     17  S   UNL     1       1.070  -1.329  -1.300  0.00  0.00    +0.062 S 
ATOM     18  O   UNL     1       0.833  -0.513  -2.440  0.00  0.00    -0.153 OA
ATOM     19  O   UNL     1       1.452  -2.697  -1.333  0.00  0.00    -0.153 OA
BRANCH  17  20
ATOM     20  N   UNL     1       2.246  -0.553  -0.429  0.00  0.00    -0.174 NA
ATOM     21  C   UNL     1       2.480   0.891  -0.587  0.00  0.00    +0.125 C 
ATOM     22  C   UNL     1       3.977   1.123  -0.787  0.00  0.00    +0.102 C 
ATOM     23  N   UNL     1       4.722   0.534   0.330  0.00  0.00    -0.297 NA
ATOM     24  C   UNL     1       4.557  -0.922   0.249  0.00  0.00    +0.102 C 
ATOM     25  C   UNL     1       3.094  -1.288   0.522  0.00  0.00    +0.125 C 
BRANCH  23  26
ATOM     26  C   UNL     1       6.143   0.812   0.083  0.00  0.00    +0.057 C 
ATOM     27  C   UNL     1       6.992   0.108   1.143  0.00  0.00    +0.019 C 
ATOM     28  C   UNL     1       8.473   0.397   0.886  0.00  0.00    +0.002 C 
ATOM     29  C   UNL     1       8.717   1.906   0.956  0.00  0.00    +0.000 C 
ATOM     30  C   UNL     1       7.868   2.610  -0.104  0.00  0.00    +0.002 C 
ATOM     31  C   UNL     1       6.388   2.321   0.154  0.00  0.00    +0.019 C 
ENDBRANCH  23  26
ENDBRANCH  17  20
ENDBRANCH   3  17
TORSDOF 5
