REMARK  Name = m282
REMARK  6 active torsions:
REMARK  status: ('A' for Active; 'I' for Inactive)
REMARK    1  A    between atoms: C_1  and  C_2
REMARK    2  A    between atoms: C_5  and  C_6
REMARK    3  A    between atoms: C_8  and  C_9
REMARK    4  A    between atoms: N_11  and  C_12
REMARK    5  A    between atoms: C_12  and  C_13
REMARK    6  A    between atoms: C_23  and  C_24
REMARK                            x       y       z     vdW  Elec       q    Type
REMARK                         _______ _______ _______ _____ _____    ______ ____
ROOT
ATOM      1  C   UNL     1       2.777  -0.060   0.127  0.00  0.00    +0.082 A 
ATOM      2  N   UNL     1       3.443  -1.112   0.583  0.00  0.00    -0.209 NA
ATOM      3  C   UNL     1       2.925  -2.329   0.568  0.00  0.00    +0.260 A 
ATOM      4  C   UNL     1       1.637  -2.542   0.047  0.00  0.00    +0.076 A 
ATOM      5  C   UNL     1       1.367  -3.973   0.168  0.00  0.00    +0.091 A 
ATOM      6  N   UNL     1       2.413  -4.520   0.710  0.00  0.00    -0.080 NA
ATOM      7  C   UNL     1       0.108  -4.683  -0.258  0.00  0.00    +0.070 C 
ATOM      8  C   UNL     1       0.899  -1.447  -0.453  0.00  0.00    +0.053 A 
ATOM      9  O   UNL     1       3.389  -3.531   0.968  0.00  0.00    -0.334 OA
ATOM     10  C   UNL     1       1.489  -0.189  -0.408  0.00  0.00    +0.042 A 
ENDROOT
BRANCH   1  14
ATOM     11  C   UNL     1       4.344   5.347  -0.091  0.00  0.00    +0.051 C 
ATOM     12  C   UNL     1       4.162   3.860   0.075  0.00  0.00    -0.013 A 
ATOM     13  S   UNL     1       2.757   2.847  -0.356  0.00  0.00    -0.092 S 
ATOM     14  C   UNL     1       3.408   1.273   0.178  0.00  0.00    +0.038 A 
ATOM     15  C   UNL     1       4.645   1.625   0.653  0.00  0.00    +0.018 A 
ATOM     16  C   UNL     1       5.022   2.947   0.598  0.00  0.00    +0.011 A 
ENDBRANCH   1  14
BRANCH   8  17
ATOM     17  C   UNL     1      -0.460  -1.632  -1.010  0.00  0.00    +0.245 C 
ATOM     18  N   UNL     1      -1.400  -0.686  -0.820  0.00  0.00    -0.304 N 
ATOM     19  H   UNL     1      -1.187   0.116  -0.319  0.00  0.00    +0.149 HD
ATOM     20  O   UNL     1      -0.727  -2.638  -1.638  0.00  0.00    -0.270 OA
BRANCH  18  21
ATOM     21  C   UNL     1      -2.745  -0.870  -1.371  0.00  0.00    +0.181 C 
BRANCH  21  22
ATOM     22  C   UNL     1      -3.599   0.322  -1.021  0.00  0.00    +0.155 A 
ATOM     23  N   UNL     1      -4.370   0.460   0.091  0.00  0.00    -0.285 N 
ATOM     24  C   UNL     1      -4.960   1.696  -0.011  0.00  0.00    +0.161 A 
ATOM     25  C   UNL     1      -5.829   2.141   1.004  0.00  0.00    +0.048 A 
ATOM     26  C   UNL     1      -6.066   1.336   2.075  0.00  0.00    +0.005 A 
ATOM     27  C   UNL     1      -5.443   0.079   2.154  0.00  0.00    +0.018 A 
ATOM     28  N   UNL     1      -4.538   2.229  -1.146  0.00  0.00    -0.129 NA
ATOM     29  C   UNL     1      -4.613  -0.334   1.174  0.00  0.00    +0.094 A 
ATOM     30  N   UNL     1      -3.737   1.410  -1.733  0.00  0.00    -0.132 NA
ENDBRANCH  21  22
ENDBRANCH  18  21
ENDBRANCH   8  17
TORSDOF 4
