REMARK  Name = m283
REMARK  7 active torsions:
REMARK  status: ('A' for Active; 'I' for Inactive)
REMARK    1  A    between atoms: C_1  and  O_2
REMARK    2  A    between atoms: O_2  and  C_3
REMARK    3  A    between atoms: C_6  and  N_7
REMARK    4  A    between atoms: C_8  and  C_9
REMARK    5  A    between atoms: N_20  and  C_21
REMARK    6  A    between atoms: C_21  and  C_22
REMARK    7  A    between atoms: N_27  and  C_28
REMARK                            x       y       z     vdW  Elec       q    Type
REMARK                         _______ _______ _______ _____ _____    ______ ____
ROOT
ATOM      1  N   UNL     1       1.425  -0.014   0.132  0.00  0.00    -0.278 N 
ATOM      2  C   UNL     1       0.134  -0.477   0.172  0.00  0.00    +0.223 A 
ATOM      3  N   UNL     1      -0.688   0.600   0.288  0.00  0.00    -0.277 N 
ATOM      4  C   UNL     1      -1.986   0.114   0.332  0.00  0.00    +0.157 A 
ATOM      5  C   UNL     1      -1.889  -1.274   0.244  0.00  0.00    +0.170 A 
ATOM      6  N   UNL     1      -3.053  -2.027   0.264  0.00  0.00    -0.279 N 
ATOM      7  C   UNL     1      -2.982  -3.488   0.172  0.00  0.00    +0.155 C 
ATOM      8  C   UNL     1      -4.248  -1.417   0.368  0.00  0.00    +0.334 A 
ATOM      9  O   UNL     1      -5.260  -2.092   0.384  0.00  0.00    -0.246 OA
ATOM     10  N   UNL     1      -4.352  -0.079   0.454  0.00  0.00    -0.250 N 
ATOM     11  C   UNL     1      -3.256   0.706   0.438  0.00  0.00    +0.283 A 
ATOM     12  O   UNL     1      -3.365   1.918   0.516  0.00  0.00    -0.265 OA
ATOM     13  C   UNL     1       0.090   1.740   0.311  0.00  0.00    +0.121 A 
ATOM     14  N   UNL     1      -0.598  -1.581   0.152  0.00  0.00    -0.193 NA
ATOM     15  C   UNL     1       1.380   1.373   0.217  0.00  0.00    +0.074 A 
ENDROOT
BRANCH   1  19
ATOM     16  C   UNL     1       4.865  -2.347  -0.201  0.00  0.00    +0.120 A 
ATOM     17  C   UNL     1       4.772  -1.146  -0.890  0.00  0.00    +0.047 A 
ATOM     18  C   UNL     1       3.631  -0.376  -0.785  0.00  0.00    +0.030 A 
ATOM     19  C   UNL     1       2.581  -0.798   0.020  0.00  0.00    +0.050 A 
ATOM     20  C   UNL     1       2.677  -1.997   0.714  0.00  0.00    +0.030 A 
ATOM     21  C   UNL     1       3.817  -2.769   0.603  0.00  0.00    +0.047 A 
BRANCH  16  23
ATOM     22  C   UNL     1       6.871  -2.416  -1.195  0.00  0.00    +0.277 C 
ATOM     23  O   UNL     1       5.987  -3.107  -0.309  0.00  0.00    -0.495 OA
ENDBRANCH  16  23
ENDBRANCH   1  19
BRANCH  15  24
ATOM     24  C   UNL     1       2.546   2.283   0.205  0.00  0.00    +0.000 A 
ATOM     25  C   UNL     1       3.708   1.942   0.897  0.00  0.00    +0.010 A 
ATOM     26  C   UNL     1       4.795   2.793   0.876  0.00  0.00    +0.001 A 
ATOM     27  C   UNL     1       4.728   3.988   0.181  0.00  0.00    +0.000 A 
ATOM     28  C   UNL     1       3.576   4.334  -0.502  0.00  0.00    +0.001 A 
ATOM     29  C   UNL     1       2.486   3.489  -0.494  0.00  0.00    +0.010 A 
ENDBRANCH  15  24
BRANCH  10  30
ATOM     30  C   UNL     1      -5.677   0.535   0.565  0.00  0.00    +0.225 C 
BRANCH  30  31
ATOM     31  C   UNL     1      -6.212   0.830  -0.813  0.00  0.00    +0.231 C 
ATOM     32  O   UNL     1      -5.550   0.554  -1.792  0.00  0.00    -0.274 OA
ATOM     33  N   UNL     1      -7.424   1.400  -0.958  0.00  0.00    -0.328 N 
ATOM     34  H   UNL     1      -7.768   1.590  -1.845  0.00  0.00    +0.145 HD
ATOM     35  H   UNL     1      -7.953   1.621  -0.175  0.00  0.00    +0.145 HD
ENDBRANCH  30  31
ENDBRANCH  10  30
TORSDOF 5
