REMARK  Name = m284
REMARK  5 active torsions:
REMARK  status: ('A' for Active; 'I' for Inactive)
REMARK    1  A    between atoms: C_1  and  C_2
REMARK    2  A    between atoms: C_2  and  C_3
REMARK    3  A    between atoms: C_11  and  C_13
REMARK    4  A    between atoms: C_15  and  C_16
REMARK    5  A    between atoms: C_19  and  C_20
REMARK                            x       y       z     vdW  Elec       q    Type
REMARK                         _______ _______ _______ _____ _____    ______ ____
ROOT
ATOM      1  C   UNL     1       5.163  -0.832   0.753  0.00  0.00    +0.133 A 
ATOM      2  N   UNL     1       4.183  -0.050   0.259  0.00  0.00    -0.312 N 
ATOM      3  C   UNL     1       4.053   1.405   0.332  0.00  0.00    +0.144 C 
ATOM      4  C   UNL     1       3.065   1.877  -0.742  0.00  0.00    +0.130 C 
ATOM      5  N   UNL     1       1.878   1.008  -0.724  0.00  0.00    -0.287 N 
ATOM      6  C   UNL     1       2.053  -0.418  -1.055  0.00  0.00    +0.184 C 
ATOM      7  C   UNL     1       0.663   1.501  -0.411  0.00  0.00    +0.267 C 
ATOM      8  O   UNL     1       0.555   2.647  -0.020  0.00  0.00    -0.268 OA
ATOM      9  C   UNL     1       3.302  -0.885  -0.348  0.00  0.00    +0.151 A 
ATOM     10  N   UNL     1       3.744  -2.096  -0.197  0.00  0.00    -0.133 NA
ATOM     11  N   UNL     1       4.853  -2.069   0.459  0.00  0.00    -0.134 NA
ENDROOT
BRANCH   7  12
ATOM     12  C   UNL     1      -0.536   0.648  -0.543  0.00  0.00    +0.148 A 
ATOM     13  N   UNL     1      -0.582  -0.559  -1.072  0.00  0.00    -0.169 NA
ATOM     14  N   UNL     1      -1.778  -1.024  -1.027  0.00  0.00    -0.276 N 
ATOM     15  H   UNL     1      -2.049  -1.896  -1.356  0.00  0.00    +0.189 HD
ATOM     16  C   UNL     1      -2.613  -0.109  -0.455  0.00  0.00    +0.073 A 
ATOM     17  C   UNL     1      -1.845   0.978  -0.132  0.00  0.00    +0.063 A 
BRANCH  16  18
ATOM     18  C   UNL     1      -4.062  -0.261  -0.228  0.00  0.00    +0.037 A 
ATOM     19  S   UNL     1      -5.039   0.238   1.180  0.00  0.00    -0.092 S 
ATOM     20  C   UNL     1      -6.629  -0.325   0.597  0.00  0.00    -0.013 A 
ATOM     21  C   UNL     1      -7.972  -0.238   1.276  0.00  0.00    +0.051 C 
ATOM     22  C   UNL     1      -6.317  -0.857  -0.612  0.00  0.00    +0.011 A 
ATOM     23  C   UNL     1      -5.008  -0.829  -1.041  0.00  0.00    +0.018 A 
ENDBRANCH  16  18
ENDBRANCH   7  12
BRANCH   1  25
ATOM     24  C   UNL     1       7.520  -0.099   0.525  0.00  0.00    +0.012 C 
ATOM     25  C   UNL     1       6.381  -0.370   1.510  0.00  0.00    +0.073 C 
ENDBRANCH   1  25
TORSDOF 3
