REMARK  Name = m285
REMARK  11 active torsions:
REMARK  status: ('A' for Active; 'I' for Inactive)
REMARK    1  A    between atoms: C_1  and  O_2
REMARK    2  A    between atoms: O_2  and  C_3
REMARK    3  A    between atoms: C_9  and  N_10
REMARK    4  A    between atoms: C_11  and  C_13
REMARK    5  A    between atoms: C_13  and  S_14
REMARK    6  A    between atoms: S_14  and  C_15
REMARK    7  A    between atoms: C_25  and  C_26
REMARK    8  A    between atoms: C_26  and  C_27
REMARK    9  A    between atoms: C_27  and  N_28
REMARK   10  A    between atoms: C_30  and  C_31
REMARK   11  A    between atoms: C_33  and  C_34
REMARK                            x       y       z     vdW  Elec       q    Type
REMARK                         _______ _______ _______ _____ _____    ______ ____
ROOT
ATOM      1  C   UNL     1      -0.461   1.488   0.126  0.00  0.00    +0.192 A 
ATOM      2  N   UNL     1      -1.799   1.236   0.259  0.00  0.00    -0.188 N 
ATOM      3  C   UNL     1      -2.709   2.249   0.127  0.00  0.00    +0.168 A 
ATOM      4  N   UNL     1      -3.908   1.738   0.307  0.00  0.00    -0.211 NA
ATOM      5  C   UNL     1      -3.807   0.436   0.556  0.00  0.00    +0.154 A 
ATOM      6  C   UNL     1      -2.196   3.592  -0.171  0.00  0.00    +0.045 A 
ATOM      7  C   UNL     1      -0.798   3.754  -0.296  0.00  0.00    +0.077 A 
ATOM      8  C   UNL     1      -0.280   5.021  -0.579  0.00  0.00    +0.028 A 
ATOM      9  C   UNL     1      -1.134   6.090  -0.731  0.00  0.00    +0.002 A 
ATOM     10  C   UNL     1      -2.508   5.926  -0.607  0.00  0.00    +0.001 A 
ATOM     11  C   UNL     1      -3.043   4.687  -0.329  0.00  0.00    +0.014 A 
ATOM     12  N   UNL     1      -2.545   0.083   0.541  0.00  0.00    -0.148 NA
ATOM     13  N   UNL     1       0.012   2.680  -0.139  0.00  0.00    -0.222 NA
ENDROOT
BRANCH   1  14
ATOM     14  S   UNL     1       0.673   0.153   0.313  0.00  0.00    -0.077 S 
BRANCH  14  15
ATOM     15  C   UNL     1       2.235   1.026   0.037  0.00  0.00    +0.173 C 
BRANCH  15  18
ATOM     16  N   UNL     1       4.647   0.482  -0.017  0.00  0.00    -0.282 N 
ATOM     17  H   UNL     1       4.829   1.428  -0.128  0.00  0.00    +0.155 HD
ATOM     18  C   UNL     1       3.381   0.053   0.151  0.00  0.00    +0.228 C 
ATOM     19  O   UNL     1       3.163  -1.115   0.395  0.00  0.00    -0.275 OA
BRANCH  16  21
ATOM     20  C   UNL     1       6.992  -0.031   0.299  0.00  0.00    +0.141 A 
ATOM     21  C   UNL     1       5.702  -0.440  -0.032  0.00  0.00    +0.077 A 
ATOM     22  C   UNL     1       5.467  -1.761  -0.386  0.00  0.00    +0.047 A 
ATOM     23  C   UNL     1       6.510  -2.669  -0.400  0.00  0.00    +0.043 A 
ATOM     24 CL   UNL     1       6.213  -4.322  -0.837  0.00  0.00    -0.083 Cl
ATOM     25  C   UNL     1       7.790  -2.262  -0.066  0.00  0.00    +0.024 A 
ATOM     26  C   UNL     1       8.032  -0.946   0.283  0.00  0.00    +0.049 A 
BRANCH  20  28
ATOM     27  C   UNL     1       8.625   1.366   0.929  0.00  0.00    +0.277 C 
ATOM     28  O   UNL     1       7.229   1.264   0.642  0.00  0.00    -0.493 OA
ENDBRANCH  20  28
ENDBRANCH  16  21
ENDBRANCH  15  18
ENDBRANCH  14  15
ENDBRANCH   1  14
BRANCH   5  29
ATOM     29  C   UNL     1      -4.965  -0.493   0.815  0.00  0.00    +0.101 C 
BRANCH  29  30
ATOM     30  C   UNL     1      -5.451  -1.084  -0.510  0.00  0.00    +0.151 C 
BRANCH  30  31
ATOM     31  N   UNL     1      -6.577  -1.986  -0.259  0.00  0.00    -0.268 N 
ATOM     32  C   UNL     1      -6.494  -3.310  -0.010  0.00  0.00    +0.036 A 
ATOM     33  C   UNL     1      -5.227  -4.122   0.064  0.00  0.00    +0.065 C 
ATOM     34  C   UNL     1      -7.752  -3.776   0.171  0.00  0.00    +0.047 A 
ATOM     35  C   UNL     1      -8.634  -2.702   0.018  0.00  0.00    +0.060 A 
ATOM     36  C   UNL     1     -10.136  -2.769   0.129  0.00  0.00    +0.067 C 
ATOM     37  N   UNL     1      -7.932  -1.629  -0.240  0.00  0.00    -0.176 NA
ENDBRANCH  30  31
ENDBRANCH  29  30
ENDBRANCH   5  29
TORSDOF 8
