REMARK  Name = m286
REMARK  6 active torsions:
REMARK  status: ('A' for Active; 'I' for Inactive)
REMARK    1  A    between atoms: C_1  and  O_2
REMARK    2  A    between atoms: O_2  and  C_3
REMARK    3  A    between atoms: C_6  and  C_7
REMARK    4  A    between atoms: C_9  and  N_10
REMARK    5  A    between atoms: C_11  and  C_13
REMARK    6  A    between atoms: C_13  and  N_14
REMARK                            x       y       z     vdW  Elec       q    Type
REMARK                         _______ _______ _______ _____ _____    ______ ____
ROOT
ATOM      1  N   UNL     1      -0.134  -0.471   1.236  0.00  0.00    -0.203 N 
ATOM      2  C   UNL     1      -0.704  -1.647   0.897  0.00  0.00    +0.352 A 
ATOM      3  O   UNL     1      -0.217  -2.752   1.053  0.00  0.00    -0.244 OA
ATOM      4  N   UNL     1      -1.908  -1.379   0.360  0.00  0.00    -0.239 N 
ATOM      5  C   UNL     1      -2.087  -0.004   0.357  0.00  0.00    +0.203 A 
ATOM      6  C   UNL     1      -3.335   0.548  -0.190  0.00  0.00    +0.167 A 
ATOM      7  N   UNL     1      -4.256  -0.257  -0.663  0.00  0.00    -0.227 NA
ATOM      8  C   UNL     1      -4.089  -1.607  -0.664  0.00  0.00    +0.090 A 
ATOM      9  C   UNL     1      -5.097  -2.430  -1.180  0.00  0.00    +0.030 A 
ATOM     10  C   UNL     1      -4.933  -3.798  -1.182  0.00  0.00    +0.002 A 
ATOM     11  C   UNL     1      -3.775  -4.367  -0.677  0.00  0.00    +0.002 A 
ATOM     12  C   UNL     1      -2.772  -3.568  -0.165  0.00  0.00    +0.028 A 
ATOM     13  N   UNL     1      -3.538   1.914  -0.205  0.00  0.00    -0.308 N 
ATOM     14  C   UNL     1      -2.525   2.843   0.324  0.00  0.00    +0.134 C 
ATOM     15  C   UNL     1      -3.227   3.857   1.228  0.00  0.00    +0.178 C 
ATOM     16  O   UNL     1      -4.271   4.505   0.503  0.00  0.00    -0.377 OA
ATOM     17  C   UNL     1      -5.291   3.539   0.253  0.00  0.00    +0.178 C 
ATOM     18  C   UNL     1      -4.777   2.497  -0.747  0.00  0.00    +0.134 C 
ATOM     19  C   UNL     1      -2.919  -2.189  -0.155  0.00  0.00    +0.078 A 
ATOM     20  N   UNL     1      -1.027   0.550   0.881  0.00  0.00    -0.145 NA
ENDROOT
BRANCH   1  21
ATOM     21  C   UNL     1       1.181  -0.294   1.855  0.00  0.00    +0.244 C 
BRANCH  21  24
ATOM     22  N   UNL     1       3.522   0.014   1.117  0.00  0.00    -0.281 N 
ATOM     23  H   UNL     1       3.791  -0.033   2.048  0.00  0.00    +0.155 HD
ATOM     24  C   UNL     1       2.229  -0.159   0.780  0.00  0.00    +0.239 C 
ATOM     25  O   UNL     1       1.908  -0.206  -0.389  0.00  0.00    -0.273 OA
BRANCH  22  27
ATOM     26  C   UNL     1       5.817  -0.051   0.349  0.00  0.00    +0.141 A 
ATOM     27  C   UNL     1       4.478   0.262   0.124  0.00  0.00    +0.076 A 
ATOM     28  C   UNL     1       4.096   0.827  -1.084  0.00  0.00    +0.030 A 
ATOM     29  C   UNL     1       5.041   1.070  -2.063  0.00  0.00    -0.048 A 
ATOM     30  C   UNL     1       4.623   1.679  -3.377  0.00  0.00    +0.044 C 
ATOM     31  C   UNL     1       6.369   0.755  -1.840  0.00  0.00    +0.007 A 
ATOM     32  C   UNL     1       6.758   0.196  -0.637  0.00  0.00    +0.048 A 
BRANCH  26  34
ATOM     33  C   UNL     1       7.610  -0.808   1.456  0.00  0.00    +0.277 C 
ATOM     34  O   UNL     1       6.198  -0.601   1.533  0.00  0.00    -0.493 OA
ENDBRANCH  26  34
ENDBRANCH  22  27
ENDBRANCH  21  24
ENDBRANCH   1  21
TORSDOF 4
