REMARK  Name = m287
REMARK  3 active torsions:
REMARK  status: ('A' for Active; 'I' for Inactive)
REMARK    1  A    between atoms: C_2  and  C_3
REMARK    2  A    between atoms: C_19  and  C_20
REMARK    3  A    between atoms: C_23  and  C_24
REMARK                            x       y       z     vdW  Elec       q    Type
REMARK                         _______ _______ _______ _____ _____    ______ ____
ROOT
ATOM      1  O   UNL     1      -2.636  -0.692  -2.170  0.00  0.00    -0.270 OA
ATOM      2  C   UNL     1      -2.421  -0.261  -1.053  0.00  0.00    +0.254 C 
ATOM      3  N   UNL     1      -2.771  -0.986   0.028  0.00  0.00    -0.286 N 
ATOM      4  C   UNL     1      -1.769  -1.777   0.755  0.00  0.00    +0.164 C 
ATOM      5  C   UNL     1      -2.257  -3.220   0.865  0.00  0.00    +0.032 C 
ATOM      6  C   UNL     1      -3.652  -3.238   1.496  0.00  0.00    +0.004 C 
ATOM      7  C   UNL     1      -4.626  -2.462   0.606  0.00  0.00    +0.019 C 
ATOM      8  C   UNL     1      -4.164  -1.006   0.497  0.00  0.00    +0.109 C 
ENDROOT
BRANCH   2   9
ATOM      9  C   UNL     1      -1.787   1.051  -0.882  0.00  0.00    +0.120 A 
ATOM     10  C   UNL     1      -1.161   1.399   0.340  0.00  0.00    +0.271 A 
ATOM     11  O   UNL     1      -1.136   0.613   1.270  0.00  0.00    -0.266 OA
ATOM     12  N   UNL     1      -0.585   2.616   0.452  0.00  0.00    -0.268 N 
ATOM     13  C   UNL     1      -0.623   3.490  -0.597  0.00  0.00    +0.140 A 
ATOM     14  C   UNL     1      -0.026   4.755  -0.468  0.00  0.00    +0.047 A 
ATOM     15  C   UNL     1       0.584   5.094   0.704  0.00  0.00    +0.005 A 
ATOM     16  C   UNL     1       0.606   4.176   1.762  0.00  0.00    +0.018 A 
ATOM     17  N   UNL     1      -1.219   3.163  -1.748  0.00  0.00    -0.237 NA
ATOM     18  C   UNL     1       0.026   2.962   1.618  0.00  0.00    +0.096 A 
ATOM     19  C   UNL     1      -1.793   1.991  -1.922  0.00  0.00    +0.131 A 
ENDBRANCH   2   9
BRANCH   4  20
ATOM     20  C   UNL     1      -0.459  -1.742   0.012  0.00  0.00    +0.238 A 
ATOM     21  O   UNL     1       0.747  -1.470   0.541  0.00  0.00    -0.418 OA
ATOM     22  C   UNL     1       1.633  -1.549  -0.472  0.00  0.00    +0.251 A 
ATOM     23  N   UNL     1       0.957  -1.851  -1.557  0.00  0.00    -0.107 NA
ATOM     24  N   UNL     1      -0.290  -1.964  -1.261  0.00  0.00    -0.110 NA
BRANCH  22  25
ATOM     25  C   UNL     1       3.092  -1.332  -0.381  0.00  0.00    +0.074 A 
ATOM     26  C   UNL     1       3.678  -1.009   0.847  0.00  0.00    +0.136 A 
ATOM     27  F   UNL     1       2.913  -0.899   1.955  0.00  0.00    -0.205 F 
ATOM     28  C   UNL     1       5.044  -0.812   0.925  0.00  0.00    +0.039 A 
ATOM     29  C   UNL     1       5.827  -0.924  -0.209  0.00  0.00    +0.003 A 
ATOM     30  C   UNL     1       5.251  -1.239  -1.428  0.00  0.00    +0.001 A 
ATOM     31  C   UNL     1       3.890  -1.443  -1.520  0.00  0.00    +0.016 A 
ENDBRANCH  22  25
ENDBRANCH   4  20
TORSDOF 3
