REMARK  Name = m288
REMARK  6 active torsions:
REMARK  status: ('A' for Active; 'I' for Inactive)
REMARK    1  A    between atoms: C_1  and  C_2
REMARK    2  A    between atoms: C_4  and  C_5
REMARK    3  A    between atoms: C_5  and  N_6
REMARK    4  A    between atoms: C_14  and  S_15
REMARK    5  A    between atoms: S_15  and  N_18
REMARK    6  A    between atoms: C_26  and  C_27
REMARK                            x       y       z     vdW  Elec       q    Type
REMARK                         _______ _______ _______ _____ _____    ______ ____
ROOT
ATOM      1  N   UNL     1      -2.710  -0.683  -0.989  0.00  0.00    -0.258 N 
ATOM      2  C   UNL     1      -1.640  -1.369  -0.388  0.00  0.00    +0.081 A 
ATOM      3  C   UNL     1      -1.667  -2.759  -0.339  0.00  0.00    +0.143 A 
ATOM      4  C   UNL     1      -0.628  -3.438   0.281  0.00  0.00    +0.049 A 
ATOM      5  C   UNL     1       0.422  -2.736   0.840  0.00  0.00    +0.032 A 
ATOM      6  C   UNL     1       0.447  -1.354   0.787  0.00  0.00    +0.111 A 
ATOM      7  O   UNL     1      -2.689  -3.455  -0.894  0.00  0.00    -0.481 OA
ATOM      8  C   UNL     1      -3.917  -2.792  -0.623  0.00  0.00    +0.325 C 
ATOM      9  C   UNL     1      -0.586  -0.668   0.175  0.00  0.00    +0.056 A 
ATOM     10  C   UNL     1      -3.871  -1.371  -1.126  0.00  0.00    +0.258 C 
ATOM     11  O   UNL     1      -4.844  -0.859  -1.639  0.00  0.00    -0.271 OA
ENDROOT
BRANCH   6  12
ATOM     12  S   UNL     1       1.794  -0.469   1.499  0.00  0.00    +0.075 S 
ATOM     13  O   UNL     1       2.364  -1.343   2.464  0.00  0.00    -0.150 OA
ATOM     14  O   UNL     1       1.301   0.838   1.762  0.00  0.00    -0.150 OA
BRANCH  12  15
ATOM     15  N   UNL     1       2.944  -0.287   0.322  0.00  0.00    -0.200 N 
ATOM     16  C   UNL     1       4.036  -1.229   0.062  0.00  0.00    +0.099 C 
ATOM     17  C   UNL     1       4.939  -1.358   1.290  0.00  0.00    +0.030 C 
ATOM     18  C   UNL     1       4.819  -0.624  -1.115  0.00  0.00    +0.061 C 
ATOM     19  C   UNL     1       4.090   0.661  -1.435  0.00  0.00    -0.023 A 
ATOM     20  C   UNL     1       4.334   1.628  -2.392  0.00  0.00    +0.005 A 
ATOM     21  C   UNL     1       3.509   2.733  -2.489  0.00  0.00    +0.000 A 
ATOM     22  C   UNL     1       2.438   2.870  -1.625  0.00  0.00    +0.002 A 
ATOM     23  C   UNL     1       2.190   1.908  -0.669  0.00  0.00    +0.025 A 
ATOM     24  C   UNL     1       3.019   0.789  -0.565  0.00  0.00    +0.055 A 
ENDBRANCH  12  15
ENDBRANCH   6  12
BRANCH   1  25
ATOM     25  C   UNL     1      -2.576   0.702  -1.448  0.00  0.00    +0.193 C 
BRANCH  25  30
ATOM     26  C   UNL     1      -2.419   3.706   2.556  0.00  0.00    +0.112 C 
ATOM     27  C   UNL     1      -2.875   2.907   1.362  0.00  0.00    +0.224 A 
ATOM     28  O   UNL     1      -4.120   2.832   0.883  0.00  0.00    -0.338 OA
ATOM     29  N   UNL     1      -4.144   2.107  -0.089  0.00  0.00    -0.060 NA
ATOM     30  C   UNL     1      -2.955   1.641  -0.332  0.00  0.00    +0.189 A 
ATOM     31  N   UNL     1      -2.126   2.149   0.597  0.00  0.00    -0.195 NA
ENDBRANCH  25  30
ENDBRANCH   1  25
TORSDOF 4
