REMARK  Name = m289
REMARK  6 active torsions:
REMARK  status: ('A' for Active; 'I' for Inactive)
REMARK    1  A    between atoms: C_1  and  N_2
REMARK    2  A    between atoms: N_2  and  C_3
REMARK    3  A    between atoms: C_4  and  C_6
REMARK    4  A    between atoms: C_14  and  C_15
REMARK    5  A    between atoms: N_17  and  S_18
REMARK    6  A    between atoms: S_18  and  N_21
REMARK                            x       y       z     vdW  Elec       q    Type
REMARK                         _______ _______ _______ _____ _____    ______ ____
ROOT
ATOM      1  C   UNL     1       2.300   0.918   0.134  0.00  0.00    +0.082 A 
ATOM      2  C   UNL     1       1.869  -0.309  -0.262  0.00  0.00    +0.011 A 
ATOM      3  C   UNL     1       2.640  -1.448   0.027  0.00  0.00    +0.014 A 
ATOM      4  C   UNL     1       3.840  -1.209   0.741  0.00  0.00    +0.109 A 
ATOM      5  N   UNL     1       4.662  -2.173   1.087  0.00  0.00    -0.248 NA
ATOM      6  C   UNL     1       4.407  -3.431   0.782  0.00  0.00    +0.112 A 
ATOM      7  C   UNL     1       3.257  -3.766   0.083  0.00  0.00    +0.020 A 
ATOM      8  C   UNL     1       2.371  -2.803  -0.300  0.00  0.00    +0.012 A 
ATOM      9  S   UNL     1       3.837   0.554   0.963  0.00  0.00    -0.064 S 
ENDROOT
BRANCH   2  10
ATOM     10  C   UNL     1       0.570  -0.446  -1.014  0.00  0.00    +0.166 C 
ATOM     11  O   UNL     1       0.499   0.556  -2.026  0.00  0.00    -0.369 OA
ATOM     12  C   UNL     1      -0.635   0.269  -2.843  0.00  0.00    +0.178 C 
ATOM     13  C   UNL     1      -1.920   0.502  -2.040  0.00  0.00    +0.138 C 
ATOM     14  N   UNL     1      -1.853  -0.320  -0.819  0.00  0.00    -0.161 NA
ATOM     15  C   UNL     1      -0.603  -0.280  -0.041  0.00  0.00    +0.147 C 
BRANCH  14  16
ATOM     16  S   UNL     1      -3.135  -1.252  -0.340  0.00  0.00    +0.100 S 
ATOM     17  O   UNL     1      -2.586  -2.264   0.494  0.00  0.00    -0.141 OA
ATOM     18  O   UNL     1      -3.906  -1.481  -1.511  0.00  0.00    -0.141 OA
BRANCH  16  19
ATOM     19  N   UNL     1      -4.082  -0.321   0.648  0.00  0.00    -0.166 NA
ATOM     20  C   UNL     1      -3.952  -0.214   2.113  0.00  0.00    +0.110 C 
ATOM     21  C   UNL     1      -4.578   1.162   2.465  0.00  0.00    +0.018 C 
ATOM     22  C   UNL     1      -5.765   1.225   1.468  0.00  0.00    +0.018 C 
ATOM     23  C   UNL     1      -5.197   0.532   0.211  0.00  0.00    +0.110 C 
ENDBRANCH  16  19
ENDBRANCH  14  16
ENDBRANCH   2  10
BRANCH   1  26
ATOM     24  C   UNL     1       1.716   4.651   0.137  0.00  0.00    +0.132 C 
ATOM     25  N   UNL     1       2.385   3.354   0.006  0.00  0.00    -0.303 N 
ATOM     26  C   UNL     1       1.655   2.224  -0.067  0.00  0.00    +0.253 C 
ATOM     27  O   UNL     1       0.463   2.284  -0.300  0.00  0.00    -0.269 OA
ATOM     28  C   UNL     1       3.848   3.287  -0.045  0.00  0.00    +0.132 C 
ENDBRANCH   1  26
TORSDOF 4
