REMARK  Name = m290
REMARK  10 active torsions:
REMARK  status: ('A' for Active; 'I' for Inactive)
REMARK    1  A    between atoms: C_1  and  O_2
REMARK    2  A    between atoms: O_2  and  C_3
REMARK    3  A    between atoms: C_9  and  N_10
REMARK    4  A    between atoms: C_11  and  C_13
REMARK    5  A    between atoms: C_13  and  S_14
REMARK    6  A    between atoms: S_14  and  C_15
REMARK    7  A    between atoms: C_25  and  C_26
REMARK    8  A    between atoms: C_26  and  C_27
REMARK    9  A    between atoms: C_27  and  N_28
REMARK   10  A    between atoms: C_32  and  C_33
REMARK                            x       y       z     vdW  Elec       q    Type
REMARK                         _______ _______ _______ _____ _____    ______ ____
ROOT
ATOM      1  C   UNL     1      -0.739   1.257   0.135  0.00  0.00    +0.192 A 
ATOM      2  N   UNL     1      -2.057   0.916   0.274  0.00  0.00    -0.188 N 
ATOM      3  C   UNL     1      -3.033   1.866   0.141  0.00  0.00    +0.168 A 
ATOM      4  N   UNL     1      -4.194   1.276   0.328  0.00  0.00    -0.211 NA
ATOM      5  C   UNL     1      -4.005  -0.015   0.583  0.00  0.00    +0.154 A 
ATOM      6  C   UNL     1      -2.612   3.238  -0.165  0.00  0.00    +0.045 A 
ATOM      7  C   UNL     1      -1.228   3.493  -0.297  0.00  0.00    +0.077 A 
ATOM      8  C   UNL     1      -0.797   4.790  -0.587  0.00  0.00    +0.028 A 
ATOM      9  C   UNL     1      -1.721   5.798  -0.741  0.00  0.00    +0.002 A 
ATOM     10  C   UNL     1      -3.080   5.543  -0.612  0.00  0.00    +0.001 A 
ATOM     11  C   UNL     1      -3.530   4.273  -0.325  0.00  0.00    +0.014 A 
ATOM     12  N   UNL     1      -2.723  -0.282   0.564  0.00  0.00    -0.148 NA
ATOM     13  N   UNL     1      -0.348   2.475  -0.138  0.00  0.00    -0.222 NA
ENDROOT
BRANCH   1  14
ATOM     14  S   UNL     1       0.483   0.001   0.323  0.00  0.00    -0.077 S 
BRANCH  14  15
ATOM     15  C   UNL     1       1.982   0.975   0.037  0.00  0.00    +0.173 C 
BRANCH  15  18
ATOM     16  N   UNL     1       4.425   0.593  -0.024  0.00  0.00    -0.282 N 
ATOM     17  H   UNL     1       4.542   1.549  -0.140  0.00  0.00    +0.155 HD
ATOM     18  C   UNL     1       3.190   0.082   0.152  0.00  0.00    +0.228 C 
ATOM     19  O   UNL     1       3.052  -1.097   0.402  0.00  0.00    -0.275 OA
BRANCH  16  21
ATOM     20  C   UNL     1       6.800   0.240   0.285  0.00  0.00    +0.141 A 
ATOM     21  C   UNL     1       5.539  -0.257  -0.039  0.00  0.00    +0.077 A 
ATOM     22  C   UNL     1       5.391  -1.592  -0.386  0.00  0.00    +0.047 A 
ATOM     23  C   UNL     1       6.493  -2.428  -0.399  0.00  0.00    +0.043 A 
ATOM     24 CL   UNL     1       6.305  -4.100  -0.827  0.00  0.00    -0.083 Cl
ATOM     25  C   UNL     1       7.743  -1.935  -0.072  0.00  0.00    +0.024 A 
ATOM     26  C   UNL     1       7.898  -0.604   0.270  0.00  0.00    +0.049 A 
BRANCH  20  28
ATOM     27  C   UNL     1       8.338   1.746   0.903  0.00  0.00    +0.277 C 
ATOM     28  O   UNL     1       6.950   1.549   0.622  0.00  0.00    -0.493 OA
ENDBRANCH  20  28
ENDBRANCH  16  21
ENDBRANCH  15  18
ENDBRANCH  14  15
ENDBRANCH   1  14
BRANCH   5  29
ATOM     29  C   UNL     1      -5.098  -1.018   0.850  0.00  0.00    +0.099 C 
BRANCH  29  30
ATOM     30  C   UNL     1      -5.548  -1.647  -0.470  0.00  0.00    +0.131 C 
BRANCH  30  31
ATOM     31  N   UNL     1      -6.611  -2.621  -0.210  0.00  0.00    -0.334 N 
ATOM     32  C   UNL     1      -7.947  -2.352  -0.086  0.00  0.00    +0.035 A 
ATOM     33  C   UNL     1      -8.605  -1.000  -0.196  0.00  0.00    +0.065 C 
ATOM     34  C   UNL     1      -8.562  -3.528   0.144  0.00  0.00    +0.133 A 
ATOM     35  N   UNL     1      -7.625  -4.487   0.170  0.00  0.00    -0.244 NA
ATOM     36  C   UNL     1      -6.454  -3.952  -0.042  0.00  0.00    +0.199 A 
ENDBRANCH  30  31
ENDBRANCH  29  30
ENDBRANCH   5  29
TORSDOF 8
