REMARK  Name = m291
REMARK  9 active torsions:
REMARK  status: ('A' for Active; 'I' for Inactive)
REMARK    1  A    between atoms: C_1  and  O_2
REMARK    2  A    between atoms: O_2  and  C_3
REMARK    3  A    between atoms: C_8  and  C_9
REMARK    4  A    between atoms: C_11  and  C_12
REMARK    5  A    between atoms: C_12  and  N_13
REMARK    6  A    between atoms: C_16  and  C_17
REMARK    7  A    between atoms: C_19  and  C_20
REMARK    8  A    between atoms: C_28  and  C_29
REMARK    9  A    between atoms: C_30  and  C_31
REMARK                            x       y       z     vdW  Elec       q    Type
REMARK                         _______ _______ _______ _____ _____    ______ ____
ROOT
ATOM      1  N   UNL     1       0.164   2.289  -0.734  0.00  0.00    -0.242 N 
ATOM      2  C   UNL     1      -0.657   1.329  -1.208  0.00  0.00    +0.069 A 
ATOM      3  C   UNL     1      -0.406   0.421  -2.385  0.00  0.00    +0.068 C 
ATOM      4  C   UNL     1      -1.761   1.342  -0.398  0.00  0.00    +0.172 A 
ATOM      5  N   UNL     1      -1.545   2.313   0.510  0.00  0.00    -0.124 NA
ATOM      6  N   UNL     1      -0.399   2.848   0.279  0.00  0.00    -0.064 NA
ENDROOT
BRANCH   4   7
ATOM      7  C   UNL     1      -2.949   0.471  -0.503  0.00  0.00    +0.281 A 
ATOM      8  O   UNL     1      -3.158  -0.490  -1.416  0.00  0.00    -0.331 OA
ATOM      9  N   UNL     1      -4.232  -1.019  -1.221  0.00  0.00    -0.054 NA
ATOM     10  C   UNL     1      -4.829  -0.471  -0.195  0.00  0.00    +0.221 A 
ATOM     11  N   UNL     1      -4.012   0.493   0.279  0.00  0.00    -0.184 NA
BRANCH  10  12
ATOM     12  C   UNL     1      -6.160  -0.841   0.349  0.00  0.00    +0.111 A 
ATOM     13  N   UNL     1      -6.641  -0.198   1.405  0.00  0.00    -0.252 NA
ATOM     14  C   UNL     1      -7.820  -0.492   1.914  0.00  0.00    +0.111 A 
ATOM     15  C   UNL     1      -8.599  -1.496   1.369  0.00  0.00    +0.020 A 
ATOM     16  C   UNL     1      -8.131  -2.198   0.268  0.00  0.00    +0.004 A 
ATOM     17  C   UNL     1      -6.891  -1.864  -0.250  0.00  0.00    +0.031 A 
ENDBRANCH  10  12
ENDBRANCH   4   7
BRANCH   1  18
ATOM     18  C   UNL     1       1.476   2.640  -1.284  0.00  0.00    +0.204 C 
BRANCH  18  23
ATOM     19  C   UNL     1       3.912   0.208  -0.178  0.00  0.00    +0.231 A 
ATOM     20  O   UNL     1       4.067   1.142   0.777  0.00  0.00    -0.440 OA
ATOM     21  C   UNL     1       3.214   2.150   0.506  0.00  0.00    +0.128 A 
ATOM     22  C   UNL     1       3.042   3.415   1.307  0.00  0.00    +0.088 C 
ATOM     23  C   UNL     1       2.541   1.815  -0.609  0.00  0.00    +0.104 A 
ATOM     24  N   UNL     1       2.986   0.616  -1.014  0.00  0.00    -0.212 NA
BRANCH  19  26
ATOM     25  C   UNL     1       5.632  -1.379   0.687  0.00  0.00    +0.132 A 
ATOM     26  C   UNL     1       4.655  -1.066  -0.267  0.00  0.00    +0.078 A 
ATOM     27  C   UNL     1       4.395  -1.958  -1.308  0.00  0.00    +0.017 A 
ATOM     28  C   UNL     1       5.092  -3.145  -1.386  0.00  0.00    +0.001 A 
ATOM     29  C   UNL     1       6.053  -3.454  -0.438  0.00  0.00    +0.004 A 
ATOM     30  C   UNL     1       6.323  -2.577   0.594  0.00  0.00    +0.046 A 
BRANCH  25  32
ATOM     31  C   UNL     1       6.921  -1.115   2.497  0.00  0.00    +0.277 C 
ATOM     32  O   UNL     1       5.896  -0.516   1.701  0.00  0.00    -0.494 OA
ENDBRANCH  25  32
ENDBRANCH  19  26
ENDBRANCH  18  23
ENDBRANCH   1  18
TORSDOF 6
