REMARK  Name = m292
REMARK  8 active torsions:
REMARK  status: ('A' for Active; 'I' for Inactive)
REMARK    1  A    between atoms: C_1  and  C_2
REMARK    2  A    between atoms: C_7  and  C_9
REMARK    3  A    between atoms: N_13  and  S_14
REMARK    4  A    between atoms: S_14  and  C_17
REMARK    5  A    between atoms: C_18  and  C_19
REMARK    6  A    between atoms: N_21  and  C_22
REMARK    7  A    between atoms: C_22  and  C_23
REMARK    8  A    between atoms: C_34  and  C_35
REMARK                            x       y       z     vdW  Elec       q    Type
REMARK                         _______ _______ _______ _____ _____    ______ ____
ROOT
ATOM      1  S   UNL     1       0.339  -2.110  -0.285  0.00  0.00    +0.064 S 
ATOM      2  O   UNL     1      -0.245  -3.095   0.556  0.00  0.00    -0.153 OA
ATOM      3  O   UNL     1       1.023  -2.369  -1.503  0.00  0.00    -0.153 OA
ENDROOT
BRANCH   1   4
ATOM      4  C   UNL     1      -0.965  -0.997  -0.695  0.00  0.00    +0.149 A 
ATOM      5  C   UNL     1      -2.105  -0.813   0.010  0.00  0.00    +0.063 A 
ATOM      6  C   UNL     1      -2.485  -1.518   1.286  0.00  0.00    +0.067 C 
ATOM      7  N   UNL     1      -2.838   0.122  -0.631  0.00  0.00    -0.258 N 
ATOM      8  N   UNL     1      -2.128   0.519  -1.772  0.00  0.00    -0.174 NA
ATOM      9  C   UNL     1      -1.006  -0.152  -1.809  0.00  0.00    +0.087 A 
ATOM     10  C   UNL     1       0.059  -0.036  -2.869  0.00  0.00    +0.069 C 
BRANCH   7  11
ATOM     11  C   UNL     1      -4.147   0.627  -0.211  0.00  0.00    +0.239 C 
BRANCH  11  12
ATOM     12  C   UNL     1      -5.233  -0.222  -0.820  0.00  0.00    +0.241 C 
ATOM     13  N   UNL     1      -6.527   0.058  -0.571  0.00  0.00    -0.269 N 
ATOM     14  C   UNL     1      -6.980   1.104   0.239  0.00  0.00    +0.040 A 
ATOM     15  C   UNL     1      -8.363   1.141   0.300  0.00  0.00    -0.024 A 
ATOM     16  C   UNL     1      -9.006   2.109   1.048  0.00  0.00    +0.005 A 
ATOM     17  C   UNL     1      -8.271   3.054   1.739  0.00  0.00    +0.000 A 
ATOM     18  C   UNL     1      -6.890   3.029   1.680  0.00  0.00    +0.002 A 
ATOM     19  C   UNL     1      -8.912   0.009  -0.538  0.00  0.00    +0.056 C 
ATOM     20  C   UNL     1      -6.245   2.066   0.935  0.00  0.00    +0.024 A 
ATOM     21  C   UNL     1      -7.667  -0.693  -1.104  0.00  0.00    +0.118 C 
ATOM     22  O   UNL     1      -4.941  -1.158  -1.534  0.00  0.00    -0.273 OA
ENDBRANCH  11  12
ENDBRANCH   7  11
ENDBRANCH   1   4
BRANCH   1  25
ATOM     23  C   UNL     1       3.837  -1.011   0.723  0.00  0.00    +0.091 C 
ATOM     24  C   UNL     1       2.533  -0.547   0.067  0.00  0.00    +0.122 C 
ATOM     25  N   UNL     1       1.413  -1.284   0.667  0.00  0.00    -0.176 NA
ATOM     26  C   UNL     1       1.264  -1.275   2.129  0.00  0.00    +0.109 C 
ATOM     27  C   UNL     1       2.583  -1.731   2.762  0.00  0.00    +0.018 C 
ATOM     28  C   UNL     1       3.724  -0.855   2.241  0.00  0.00    +0.015 C 
BRANCH  23  36
ATOM     29  C   UNL     1      10.371   3.047  -0.953  0.00  0.00    +0.045 C 
ATOM     30  C   UNL     1       9.287   2.105  -0.498  0.00  0.00    -0.032 A 
ATOM     31  C   UNL     1       8.005   2.224  -0.996  0.00  0.00    +0.116 A 
ATOM     32  N   UNL     1       7.049   1.402  -0.608  0.00  0.00    -0.240 NA
ATOM     33  C   UNL     1       7.275   0.442   0.274  0.00  0.00    +0.125 A 
ATOM     34  N   UNL     1       6.234  -0.401   0.659  0.00  0.00    -0.270 N 
ATOM     35  H   UNL     1       6.410  -1.152   1.248  0.00  0.00    +0.156 HD
ATOM     36  C   UNL     1       4.982  -0.173   0.215  0.00  0.00    +0.223 C 
ATOM     37  O   UNL     1       4.777   0.707  -0.595  0.00  0.00    -0.275 OA
ATOM     38  C   UNL     1       8.541   0.267   0.821  0.00  0.00    +0.044 A 
ATOM     39  C   UNL     1       9.566   1.111   0.430  0.00  0.00    +0.008 A 
ENDBRANCH  23  36
ENDBRANCH   1  25
TORSDOF 5
