REMARK  Name = m293
REMARK  4 active torsions:
REMARK  status: ('A' for Active; 'I' for Inactive)
REMARK    1  A    between atoms: C_1  and  O_2
REMARK    2  A    between atoms: O_2  and  C_3
REMARK    3  A    between atoms: C_6  and  C_7
REMARK    4  A    between atoms: C_11  and  C_12
REMARK                            x       y       z     vdW  Elec       q    Type
REMARK                         _______ _______ _______ _____ _____    ______ ____
ROOT
ATOM      1  C   UNL     1      -0.369  -1.371   0.002  0.00  0.00    +0.103 A 
ATOM      2  C   UNL     1      -0.664  -0.018  -0.045  0.00  0.00    +0.134 A 
ATOM      3  N   UNL     1      -2.059   0.086  -0.099  0.00  0.00    -0.303 N 
ATOM      4  C   UNL     1      -3.035   1.177  -0.205  0.00  0.00    +0.148 C 
ATOM      5  C   UNL     1      -4.441   0.740   0.275  0.00  0.00    +0.197 C 
ATOM      6  S   UNL     1      -4.296  -1.069  -0.044  0.00  0.00    +0.032 S 
ATOM      7  O   UNL     1      -4.680  -1.847   1.082  0.00  0.00    -0.166 OA
ATOM      8  O   UNL     1      -4.656  -1.411  -1.375  0.00  0.00    -0.166 OA
ATOM      9  C   UNL     1      -2.517  -1.180  -0.047  0.00  0.00    +0.252 A 
ATOM     10  N   UNL     1      -1.535  -2.033  -0.004  0.00  0.00    -0.211 NA
ENDROOT
BRANCH   2  11
ATOM     11  C   UNL     1       0.296   1.086  -0.045  0.00  0.00    +0.268 C 
ATOM     12  N   UNL     1      -0.141   2.359  -0.103  0.00  0.00    -0.265 N 
ATOM     13  H   UNL     1      -1.086   2.543  -0.222  0.00  0.00    +0.157 HD
ATOM     14  C   UNL     1       0.764   3.412   0.008  0.00  0.00    +0.125 A 
ATOM     15  N   UNL     1       2.061   3.158   0.072  0.00  0.00    -0.240 NA
ATOM     16  C   UNL     1       2.952   4.126   0.172  0.00  0.00    +0.113 A 
ATOM     17  C   UNL     1       2.558   5.448   0.224  0.00  0.00    +0.020 A 
ATOM     18  C   UNL     1       1.205   5.758   0.165  0.00  0.00    +0.005 A 
ATOM     19  C   UNL     1       0.296   4.721   0.055  0.00  0.00    +0.044 A 
ATOM     20  O   UNL     1       1.490   0.854   0.006  0.00  0.00    -0.268 OA
ENDBRANCH   2  11
BRANCH   1  24
ATOM     21  C   UNL     1       3.510  -3.102   0.156  0.00  0.00    +0.120 A 
ATOM     22  C   UNL     1       3.275  -2.001  -0.657  0.00  0.00    +0.046 A 
ATOM     23  C   UNL     1       2.017  -1.441  -0.714  0.00  0.00    +0.013 A 
ATOM     24  C   UNL     1       0.982  -1.974   0.056  0.00  0.00    +0.003 A 
ATOM     25  C   UNL     1       1.224  -3.077   0.876  0.00  0.00    +0.013 A 
ATOM     26  C   UNL     1       2.483  -3.636   0.923  0.00  0.00    +0.046 A 
BRANCH  21  28
ATOM     27  C   UNL     1       5.576  -2.897  -0.680  0.00  0.00    +0.277 C 
ATOM     28  O   UNL     1       4.750  -3.655   0.205  0.00  0.00    -0.495 OA
ENDBRANCH  21  28
ENDBRANCH   1  24
TORSDOF 3
