REMARK  Name = m294
REMARK  4 active torsions:
REMARK  status: ('A' for Active; 'I' for Inactive)
REMARK    1  A    between atoms: C_1  and  N_2
REMARK    2  A    between atoms: C_4  and  C_5
REMARK    3  A    between atoms: N_17  and  S_18
REMARK    4  A    between atoms: S_18  and  C_21
REMARK                            x       y       z     vdW  Elec       q    Type
REMARK                         _______ _______ _______ _____ _____    ______ ____
ROOT
ATOM      1  C   UNL     1       2.812   4.021   0.063  0.00  0.00    +0.172 C 
ATOM      2  N   UNL     1       2.493   2.592   0.109  0.00  0.00    -0.270 N 
ATOM      3  C   UNL     1       1.250   2.082   0.149  0.00  0.00    +0.045 A 
ATOM      4  C   UNL     1      -0.068   2.812   0.163  0.00  0.00    +0.072 C 
ATOM      5  C   UNL     1      -1.178   1.834  -0.244  0.00  0.00    +0.116 C 
ATOM      6  N   UNL     1      -0.998   0.566   0.478  0.00  0.00    -0.172 NA
ATOM      7  C   UNL     1       0.216  -0.228   0.211  0.00  0.00    +0.148 C 
ATOM      8  C   UNL     1       1.375   0.732   0.175  0.00  0.00    +0.021 A 
ATOM      9  C   UNL     1       2.754   0.469   0.161  0.00  0.00    +0.152 A 
ATOM     10  N   UNL     1       3.362   1.642   0.121  0.00  0.00    -0.166 NA
ENDROOT
BRANCH   9  11
ATOM     11  C   UNL     1       3.400  -0.860   0.188  0.00  0.00    +0.267 C 
ATOM     12  N   UNL     1       4.736  -0.963   0.050  0.00  0.00    -0.292 N 
ATOM     13  C   UNL     1       5.564   0.212  -0.275  0.00  0.00    +0.136 C 
ATOM     14  C   UNL     1       6.523  -0.171  -1.402  0.00  0.00    +0.179 C 
ATOM     15  O   UNL     1       7.284  -1.315  -1.018  0.00  0.00    -0.377 OA
ATOM     16  C   UNL     1       6.394  -2.430  -0.962  0.00  0.00    +0.179 C 
ATOM     17  C   UNL     1       5.425  -2.255   0.212  0.00  0.00    +0.136 C 
ATOM     18  O   UNL     1       2.725  -1.861   0.334  0.00  0.00    -0.268 OA
ENDBRANCH   9  11
BRANCH   6  19
ATOM     19  S   UNL     1      -2.129   0.042   1.567  0.00  0.00    +0.063 S 
ATOM     20  O   UNL     1      -2.835   1.204   1.980  0.00  0.00    -0.153 OA
ATOM     21  O   UNL     1      -1.446  -0.856   2.432  0.00  0.00    -0.153 OA
BRANCH  19  22
ATOM     22  C   UNL     1      -3.296  -0.940   0.684  0.00  0.00    +0.134 A 
ATOM     23  C   UNL     1      -4.119  -0.343  -0.306  0.00  0.00    +0.126 A 
ATOM     24  C   UNL     1      -5.071  -1.189  -1.021  0.00  0.00    +0.102 A 
ATOM     25  N   UNL     1      -5.771  -0.502  -1.922  0.00  0.00    -0.191 NA
ATOM     26  S   UNL     1      -5.260   0.976  -1.840  0.00  0.00    +0.117 S 
ATOM     27  C   UNL     1      -5.137  -2.566  -0.685  0.00  0.00    +0.031 A 
ATOM     28  C   UNL     1      -4.324  -3.068   0.276  0.00  0.00    +0.004 A 
ATOM     29  N   UNL     1      -4.161   0.920  -0.724  0.00  0.00    -0.189 NA
ATOM     30  C   UNL     1      -3.412  -2.261   0.955  0.00  0.00    +0.031 A 
ENDBRANCH  19  22
ENDBRANCH   6  19
TORSDOF 3
