REMARK  Name = m295
REMARK  8 active torsions:
REMARK  status: ('A' for Active; 'I' for Inactive)
REMARK    1  A    between atoms: C_1  and  C_2
REMARK    2  A    between atoms: C_2  and  O_3
REMARK    3  A    between atoms: O_3  and  C_4
REMARK    4  A    between atoms: C_9  and  N_10
REMARK    5  A    between atoms: C_13  and  C_14
REMARK    6  A    between atoms: C_17  and  C_18
REMARK    7  A    between atoms: C_18  and  C_19
REMARK    8  A    between atoms: C_29  and  C_30
REMARK                            x       y       z     vdW  Elec       q    Type
REMARK                         _______ _______ _______ _____ _____    ______ ____
ROOT
ATOM      1  N   UNL     1       2.873   0.167  -0.437  0.00  0.00    -0.213 N 
ATOM      2  C   UNL     1       1.893  -0.763  -0.341  0.00  0.00    +0.072 A 
ATOM      3  C   UNL     1       2.029  -2.242  -0.597  0.00  0.00    +0.068 C 
ATOM      4  C   UNL     1       0.761  -0.105   0.040  0.00  0.00    +0.143 A 
ATOM      5  N   UNL     1       1.048   1.201   0.164  0.00  0.00    -0.127 NA
ATOM      6  N   UNL     1       2.290   1.400  -0.111  0.00  0.00    -0.060 NA
ENDROOT
BRANCH   4   7
ATOM      7  C   UNL     1      -0.562  -0.724   0.271  0.00  0.00    +0.154 A 
ATOM      8  S   UNL     1      -1.040  -2.439   0.124  0.00  0.00    -0.025 S 
ATOM      9  C   UNL     1      -2.746  -2.251   0.577  0.00  0.00    +0.218 A 
ATOM     10  N   UNL     1      -2.845  -0.900   0.803  0.00  0.00    -0.190 N 
ATOM     11  C   UNL     1      -4.167  -0.723   1.154  0.00  0.00    +0.160 A 
ATOM     12  N   UNL     1      -4.752  -1.888   1.123  0.00  0.00    -0.131 NA
ATOM     13  N   UNL     1      -3.907  -2.797   0.780  0.00  0.00    -0.120 NA
ATOM     14  N   UNL     1      -1.685  -0.156   0.631  0.00  0.00    -0.154 NA
BRANCH  11  15
ATOM     15  C   UNL     1      -4.821   0.587   1.509  0.00  0.00    +0.113 C 
BRANCH  15  16
ATOM     16  C   UNL     1      -5.374   1.228   0.262  0.00  0.00    -0.040 A 
ATOM     17  C   UNL     1      -4.588   2.091  -0.478  0.00  0.00    +0.004 A 
ATOM     18  C   UNL     1      -5.094   2.675  -1.624  0.00  0.00    +0.000 A 
ATOM     19  C   UNL     1      -6.388   2.402  -2.026  0.00  0.00    +0.000 A 
ATOM     20  C   UNL     1      -7.176   1.542  -1.283  0.00  0.00    +0.000 A 
ATOM     21  C   UNL     1      -6.669   0.955  -0.139  0.00  0.00    +0.004 A 
ENDBRANCH  15  16
ENDBRANCH  11  15
ENDBRANCH   4   7
BRANCH   1  23
ATOM     22  C   UNL     1       5.240   0.503  -0.048  0.00  0.00    +0.146 A 
ATOM     23  C   UNL     1       4.210  -0.059  -0.799  0.00  0.00    +0.109 A 
ATOM     24  C   UNL     1       4.508  -0.833  -1.910  0.00  0.00    +0.031 A 
ATOM     25  C   UNL     1       5.825  -1.053  -2.264  0.00  0.00    +0.002 A 
ATOM     26  C   UNL     1       6.848  -0.500  -1.516  0.00  0.00    +0.004 A 
ATOM     27  C   UNL     1       6.559   0.277  -0.410  0.00  0.00    +0.048 A 
BRANCH  22  28
ATOM     28  O   UNL     1       4.953   1.266   1.039  0.00  0.00    -0.490 OA
BRANCH  28  30
ATOM     29  C   UNL     1       5.950   2.553   2.825  0.00  0.00    +0.048 C 
ATOM     30  C   UNL     1       6.203   1.685   1.591  0.00  0.00    +0.226 C 
ENDBRANCH  28  30
ENDBRANCH  22  28
ENDBRANCH   1  23
TORSDOF 6
