REMARK  Name = m296
REMARK  12 active torsions:
REMARK  status: ('A' for Active; 'I' for Inactive)
REMARK    1  A    between atoms: C_1  and  O_2
REMARK    2  A    between atoms: O_2  and  C_3
REMARK    3  A    between atoms: C_7  and  N_8
REMARK    4  A    between atoms: C_9  and  C_11
REMARK    5  A    between atoms: C_11  and  N_12
REMARK    6  A    between atoms: N_15  and  C_16
REMARK    7  A    between atoms: C_16  and  C_17
REMARK    8  A    between atoms: C_16  and  C_18
REMARK    9  A    between atoms: C_22  and  C_23
REMARK   10  A    between atoms: C_26  and  C_27
REMARK   11  A    between atoms: C_31  and  O_32
REMARK   12  A    between atoms: O_32  and  C_33
REMARK                            x       y       z     vdW  Elec       q    Type
REMARK                         _______ _______ _______ _____ _____    ______ ____
ROOT
ATOM      1  N   UNL     1      -1.018  -1.762   0.900  0.00  0.00    -0.283 N 
ATOM      2  C   UNL     1      -2.102  -1.050   0.391  0.00  0.00    +0.071 A 
ATOM      3  C   UNL     1      -2.845  -1.946  -0.383  0.00  0.00    +0.070 A 
ATOM      4  C   UNL     1      -3.997  -1.517  -1.029  0.00  0.00    +0.029 A 
ATOM      5  C   UNL     1      -4.405  -0.206  -0.913  0.00  0.00    +0.014 A 
ATOM      6  C   UNL     1      -3.663   0.694  -0.147  0.00  0.00    +0.025 A 
ATOM      7  N   UNL     1      -2.195  -3.174  -0.311  0.00  0.00    -0.289 N 
ATOM      8  C   UNL     1      -2.508   0.269   0.504  0.00  0.00    +0.039 A 
ATOM      9  C   UNL     1      -1.104  -3.033   0.465  0.00  0.00    +0.331 A 
ATOM     10  O   UNL     1      -0.315  -3.920   0.732  0.00  0.00    -0.246 OA
ENDROOT
BRANCH   6  11
ATOM     11  C   UNL     1      -4.106   2.105  -0.024  0.00  0.00    +0.202 A 
ATOM     12  N   UNL     1      -5.199   2.656  -0.600  0.00  0.00    -0.192 NA
ATOM     13  C   UNL     1      -5.201   3.910  -0.222  0.00  0.00    +0.225 A 
ATOM     14  C   UNL     1      -6.220   4.955  -0.594  0.00  0.00    +0.112 C 
ATOM     15  O   UNL     1      -4.127   4.089   0.553  0.00  0.00    -0.338 OA
ATOM     16  N   UNL     1      -3.511   3.049   0.657  0.00  0.00    -0.056 NA
ENDBRANCH   6  11
BRANCH   7  17
ATOM     17  C   UNL     1      -2.625  -4.411  -0.968  0.00  0.00    +0.086 C 
ATOM     18  C   UNL     1      -2.883  -5.486   0.089  0.00  0.00    +0.031 C 
ATOM     19  C   UNL     1      -1.530  -4.888  -1.924  0.00  0.00    +0.031 C 
ENDBRANCH   7  17
BRANCH   1  20
ATOM     20  C   UNL     1       0.032  -1.221   1.767  0.00  0.00    +0.222 C 
BRANCH  20  23
ATOM     21  N   UNL     1       2.245  -0.147   1.506  0.00  0.00    -0.280 N 
ATOM     22  H   UNL     1       2.302  -0.101   2.473  0.00  0.00    +0.155 HD
ATOM     23  C   UNL     1       1.162  -0.695   0.920  0.00  0.00    +0.237 C 
ATOM     24  O   UNL     1       1.096  -0.764  -0.289  0.00  0.00    -0.274 OA
BRANCH  21  28
ATOM     25  C   UNL     1       5.353   1.355  -0.844  0.00  0.00    +0.125 A 
ATOM     26  C   UNL     1       5.349   0.018  -0.478  0.00  0.00    +0.093 A 
ATOM     27  C   UNL     1       4.322  -0.482   0.306  0.00  0.00    +0.146 A 
ATOM     28  C   UNL     1       3.290   0.358   0.716  0.00  0.00    +0.094 A 
ATOM     29  C   UNL     1       3.295   1.695   0.343  0.00  0.00    +0.069 A 
ATOM     30 CL   UNL     1       2.009   2.743   0.852  0.00  0.00    -0.081 Cl
ATOM     31  C   UNL     1       4.324   2.191  -0.436  0.00  0.00    +0.067 A 
BRANCH  25  33
ATOM     32  C   UNL     1       6.086   3.232  -1.821  0.00  0.00    +0.277 C 
ATOM     33  O   UNL     1       6.364   1.847  -1.609  0.00  0.00    -0.495 OA
ENDBRANCH  25  33
BRANCH  27  34
ATOM     34  O   UNL     1       4.319  -1.792   0.670  0.00  0.00    -0.493 OA
ATOM     35  C   UNL     1       5.491  -2.381   0.104  0.00  0.00    +0.277 C 
ENDBRANCH  27  34
ENDBRANCH  21  28
ENDBRANCH  20  23
ENDBRANCH   1  20
TORSDOF 7
