REMARK  Name = m297
REMARK  4 active torsions:
REMARK  status: ('A' for Active; 'I' for Inactive)
REMARK    1  A    between atoms: C_4  and  C_5
REMARK    2  A    between atoms: C_10  and  C_11
REMARK    3  A    between atoms: C_11  and  N_12
REMARK    4  A    between atoms: N_12  and  C_13
REMARK                            x       y       z     vdW  Elec       q    Type
REMARK                         _______ _______ _______ _____ _____    ______ ____
ROOT
ATOM      1  C   UNL     1       0.492   1.144  -0.615  0.00  0.00    +0.120 C 
ENDROOT
BRANCH   1   3
ATOM      2  C   UNL     1       3.018   0.998  -0.014  0.00  0.00    +0.103 A 
ATOM      3  C   UNL     1       1.828   1.724  -0.226  0.00  0.00    +0.012 A 
ATOM      4  C   UNL     1       2.096   3.030  -0.010  0.00  0.00    +0.110 A 
ATOM      5  N   UNL     1       3.402   3.140   0.317  0.00  0.00    -0.284 N 
ATOM      6  H   UNL     1       3.869   3.965   0.521  0.00  0.00    +0.188 HD
ATOM      7  N   UNL     1       3.964   1.857   0.310  0.00  0.00    -0.173 NA
BRANCH   2  10
ATOM      8  C   UNL     1       4.174  -2.558  -0.616  0.00  0.00    +0.008 A 
ATOM      9  C   UNL     1       4.255  -1.182  -0.589  0.00  0.00    +0.018 A 
ATOM     10  C   UNL     1       3.179  -0.467  -0.139  0.00  0.00    +0.040 A 
ATOM     11  S   UNL     1       2.018  -1.764   0.260  0.00  0.00    -0.095 S 
ATOM     12  C   UNL     1       3.032  -3.160  -0.195  0.00  0.00    +0.046 A 
ENDBRANCH   2  10
ENDBRANCH   1   3
BRANCH   1  13
ATOM     13  N   UNL     1      -0.162   0.582   0.573  0.00  0.00    -0.307 NA
ATOM     14  H   UNL     1       0.398  -0.204   0.869  0.00  0.00    +0.123 HD
BRANCH  13  15
ATOM     15  C   UNL     1      -1.451   0.037   0.127  0.00  0.00    +0.076 C 
ATOM     16  C   UNL     1      -2.500   1.155   0.110  0.00  0.00    +0.164 C 
ATOM     17  N   UNL     1      -3.819   0.559  -0.105  0.00  0.00    -0.248 N 
ATOM     18  C   UNL     1      -4.116  -0.744   0.060  0.00  0.00    +0.128 A 
ATOM     19  N   UNL     1      -5.377  -0.910  -0.223  0.00  0.00    -0.219 NA
ATOM     20  C   UNL     1      -5.919   0.259  -0.569  0.00  0.00    +0.245 A 
ATOM     21  C   UNL     1      -3.119  -1.789   0.499  0.00  0.00    +0.077 C 
ATOM     22  N   UNL     1      -4.999   1.190  -0.511  0.00  0.00    -0.158 NA
ATOM     23  C   UNL     1      -1.899  -1.069   1.088  0.00  0.00    +0.028 C 
ENDBRANCH  13  15
ENDBRANCH   1  13
TORSDOF 4
