REMARK  Name = m299
REMARK  8 active torsions:
REMARK  status: ('A' for Active; 'I' for Inactive)
REMARK    1  A    between atoms: C_1  and  C_2
REMARK    2  A    between atoms: C_4  and  C_5
REMARK    3  A    between atoms: C_6  and  C_7
REMARK    4  A    between atoms: C_13  and  C_14
REMARK    5  A    between atoms: C_15  and  C_16
REMARK    6  A    between atoms: N_18  and  C_19
REMARK    7  A    between atoms: C_19  and  C_20
REMARK    8  A    between atoms: C_20  and  O_21
REMARK                            x       y       z     vdW  Elec       q    Type
REMARK                         _______ _______ _______ _____ _____    ______ ____
ROOT
ATOM      1  C   UNL     1      -1.200  -0.854   0.741  0.00  0.00    +0.011 A 
ATOM      2  C   UNL     1      -1.004  -2.242   0.840  0.00  0.00    +0.014 A 
ATOM      3  C   UNL     1      -1.962  -3.044   0.172  0.00  0.00    +0.109 A 
ATOM      4  N   UNL     1      -1.915  -4.357   0.178  0.00  0.00    -0.248 NA
ATOM      5  C   UNL     1      -0.961  -5.004   0.820  0.00  0.00    +0.112 A 
ATOM      6  C   UNL     1       0.021  -4.306   1.509  0.00  0.00    +0.020 A 
ATOM      7  S   UNL     1      -3.057  -1.849  -0.555  0.00  0.00    -0.064 S 
ATOM      8  C   UNL     1       0.017  -2.943   1.534  0.00  0.00    +0.012 A 
ATOM      9  C   UNL     1      -2.251  -0.368   0.029  0.00  0.00    +0.082 A 
ENDROOT
BRANCH   1  13
ATOM     10  C   UNL     1       2.859   1.761   0.825  0.00  0.00    +0.255 C 
ATOM     11  N   UNL     1       1.530   1.719   1.042  0.00  0.00    -0.292 N 
ATOM     12  C   UNL     1       0.675   0.731   0.362  0.00  0.00    +0.144 C 
ATOM     13  C   UNL     1      -0.243   0.094   1.417  0.00  0.00    +0.167 C 
ATOM     14  O   UNL     1      -0.981   1.116   2.086  0.00  0.00    -0.369 OA
ATOM     15  C   UNL     1      -0.061   1.867   2.878  0.00  0.00    +0.179 C 
ATOM     16  C   UNL     1       0.875   2.664   1.963  0.00  0.00    +0.136 C 
ATOM     17  O   UNL     1       3.562   2.496   1.494  0.00  0.00    -0.269 OA
BRANCH  10  21
ATOM     18  C   UNL     1       4.260  -1.630  -3.381  0.00  0.00    +0.073 C 
ATOM     19  C   UNL     1       4.121  -0.689  -2.212  0.00  0.00    +0.076 A 
ATOM     20  S   UNL     1       2.674  -0.080  -1.471  0.00  0.00    -0.068 S 
ATOM     21  C   UNL     1       3.460   0.921  -0.216  0.00  0.00    +0.097 A 
ATOM     22  C   UNL     1       4.786   0.687  -0.503  0.00  0.00    +0.058 A 
ATOM     23  C   UNL     1       5.881   1.336   0.304  0.00  0.00    +0.067 C 
ATOM     24  N   UNL     1       5.067  -0.115  -1.498  0.00  0.00    -0.249 NA
ENDBRANCH  10  21
ENDBRANCH   1  13
BRANCH   9  25
ATOM     25  C   UNL     1      -2.630   1.033  -0.203  0.00  0.00    +0.251 C 
ATOM     26  N   UNL     1      -3.718   1.323  -0.945  0.00  0.00    -0.309 N 
ATOM     27  H   UNL     1      -4.250   0.607  -1.325  0.00  0.00    +0.149 HD
ATOM     28  O   UNL     1      -1.962   1.931   0.274  0.00  0.00    -0.270 OA
BRANCH  26  29
ATOM     29  C   UNL     1      -4.096   2.720  -1.176  0.00  0.00    +0.132 C 
BRANCH  29  30
ATOM     30  C   UNL     1      -5.356   2.770  -2.041  0.00  0.00    +0.174 C 
BRANCH  30  31
ATOM     31  O   UNL     1      -6.450   2.197  -1.322  0.00  0.00    -0.393 OA
ATOM     32  H   UNL     1      -7.223   2.248  -1.902  0.00  0.00    +0.209 HD
ENDBRANCH  30  31
ENDBRANCH  29  30
ENDBRANCH  26  29
ENDBRANCH   9  25
TORSDOF 6
