REMARK  Name = m300
REMARK  8 active torsions:
REMARK  status: ('A' for Active; 'I' for Inactive)
REMARK    1  A    between atoms: C_1  and  O_2
REMARK    2  A    between atoms: O_2  and  C_3
REMARK    3  A    between atoms: C_3  and  C_4
REMARK    4  A    between atoms: C_4  and  N_5
REMARK    5  A    between atoms: C_6  and  C_8
REMARK    6  A    between atoms: C_16  and  C_17
REMARK    7  A    between atoms: C_20  and  C_22
REMARK    8  A    between atoms: C_27  and  C_28
REMARK                            x       y       z     vdW  Elec       q    Type
REMARK                         _______ _______ _______ _____ _____    ______ ____
ROOT
ATOM      1  C   UNL     1       1.685   0.635   0.099  0.00  0.00    +0.082 A 
ATOM      2  C   UNL     1       0.492   1.067   0.586  0.00  0.00    +0.011 A 
ATOM      3  C   UNL     1       0.162   2.432   0.520  0.00  0.00    +0.014 A 
ATOM      4  C   UNL     1       1.135   3.268  -0.081  0.00  0.00    +0.109 A 
ATOM      5  N   UNL     1       0.968   4.564  -0.218  0.00  0.00    -0.248 NA
ATOM      6  C   UNL     1      -0.130   5.160   0.202  0.00  0.00    +0.112 A 
ATOM      7  C   UNL     1      -1.142   4.427   0.805  0.00  0.00    +0.020 A 
ATOM      8  C   UNL     1      -1.018   3.079   0.972  0.00  0.00    +0.012 A 
ATOM      9  S   UNL     1       2.436   2.136  -0.508  0.00  0.00    -0.064 S 
ENDROOT
BRANCH   2  10
ATOM     10  C   UNL     1      -0.473   0.086   1.202  0.00  0.00    +0.167 C 
ATOM     11  O   UNL     1       0.236  -0.792   2.075  0.00  0.00    -0.369 OA
ATOM     12  C   UNL     1      -0.728  -1.563   2.791  0.00  0.00    +0.179 C 
ATOM     13  C   UNL     1      -1.429  -2.529   1.829  0.00  0.00    +0.136 C 
ATOM     14  N   UNL     1      -2.009  -1.742   0.728  0.00  0.00    -0.292 N 
ATOM     15  C   UNL     1      -3.277  -1.941   0.317  0.00  0.00    +0.250 C 
ATOM     16  O   UNL     1      -4.000  -2.705   0.926  0.00  0.00    -0.270 OA
ATOM     17  C   UNL     1      -1.150  -0.727   0.093  0.00  0.00    +0.144 C 
BRANCH  15  18
ATOM     18  C   UNL     1      -3.787  -1.233  -0.871  0.00  0.00    +0.077 A 
ATOM     19  C   UNL     1      -5.051  -0.615  -1.001  0.00  0.00    +0.072 A 
ATOM     20  C   UNL     1      -6.122  -0.559   0.058  0.00  0.00    +0.068 C 
ATOM     21  N   UNL     1      -5.125  -0.095  -2.195  0.00  0.00    -0.178 NA
ATOM     22  N   UNL     1      -3.934  -0.360  -2.880  0.00  0.00    -0.284 N 
ATOM     23  H   UNL     1      -3.729  -0.088  -3.788  0.00  0.00    +0.188 HD
ATOM     24  C   UNL     1      -3.121  -1.054  -2.067  0.00  0.00    +0.118 A 
ENDBRANCH  15  18
ENDBRANCH   2  10
BRANCH   1  27
ATOM     25  N   UNL     1       3.435  -0.970  -0.462  0.00  0.00    -0.309 N 
ATOM     26  H   UNL     1       3.955  -0.238  -0.830  0.00  0.00    +0.149 HD
ATOM     27  C   UNL     1       2.222  -0.733   0.073  0.00  0.00    +0.251 C 
ATOM     28  O   UNL     1       1.570  -1.651   0.535  0.00  0.00    -0.270 OA
BRANCH  25  29
ATOM     29  C   UNL     1       3.970  -2.334  -0.488  0.00  0.00    +0.132 C 
BRANCH  29  30
ATOM     30  C   UNL     1       5.353  -2.327  -1.144  0.00  0.00    +0.178 C 
BRANCH  30  32
ATOM     31  C   UNL     1       7.527  -1.610  -0.995  0.00  0.00    +0.194 C 
ATOM     32  O   UNL     1       6.261  -1.580  -0.333  0.00  0.00    -0.381 OA
ENDBRANCH  30  32
ENDBRANCH  29  30
ENDBRANCH  25  29
ENDBRANCH   1  27
TORSDOF 6
