REMARK  Name = m301
REMARK  6 active torsions:
REMARK  status: ('A' for Active; 'I' for Inactive)
REMARK    1  A    between atoms: C_1  and  C_2
REMARK    2  A    between atoms: C_2  and  C_3
REMARK    3  A    between atoms: C_7  and  N_8
REMARK    4  A    between atoms: N_17  and  C_18
REMARK    5  A    between atoms: C_18  and  C_19
REMARK    6  A    between atoms: C_22  and  C_23
REMARK                            x       y       z     vdW  Elec       q    Type
REMARK                         _______ _______ _______ _____ _____    ______ ____
ROOT
ATOM      1  C   UNL     1       1.035   0.538   2.236  0.00  0.00    +0.047 C 
ATOM      2  C   UNL     1       1.291   0.463   0.730  0.00  0.00    +0.135 C 
ATOM      3  C   UNL     1       0.333   1.367  -0.020  0.00  0.00    +0.251 C 
ATOM      4  O   UNL     1       0.228   2.571   0.079  0.00  0.00    -0.272 OA
ATOM      5  N   UNL     1      -0.385   0.548  -0.821  0.00  0.00    -0.215 N 
ATOM      6  C   UNL     1      -0.012  -0.729  -0.682  0.00  0.00    +0.310 C 
ATOM      7  O   UNL     1      -0.512  -1.650  -1.299  0.00  0.00    -0.252 OA
ATOM      8  N   UNL     1       0.977  -0.882   0.217  0.00  0.00    -0.281 N 
ATOM      9  H   UNL     1       1.402  -1.714   0.476  0.00  0.00    +0.152 HD
ENDROOT
BRANCH   2  10
ATOM     10  C   UNL     1       2.719   0.830   0.417  0.00  0.00    -0.014 A 
ATOM     11  C   UNL     1       3.695  -0.147   0.406  0.00  0.00    +0.034 A 
ATOM     12  C   UNL     1       5.010   0.190   0.113  0.00  0.00    +0.069 A 
ATOM     13  C   UNL     1       5.341   1.511  -0.157  0.00  0.00    +0.028 A 
ATOM     14  C   UNL     1       4.361   2.485  -0.138  0.00  0.00    +0.002 A 
ATOM     15  C   UNL     1       3.052   2.145   0.149  0.00  0.00    +0.006 A 
BRANCH  12  16
ATOM     16  N   UNL     1       6.003  -0.800   0.096  0.00  0.00    -0.200 N 
ATOM     17  N   UNL     1       5.895  -2.108  -0.409  0.00  0.00    -0.039 NA
ATOM     18  N   UNL     1       7.040  -2.671  -0.224  0.00  0.00    -0.023 NA
ATOM     19  N   UNL     1       7.848  -1.855   0.350  0.00  0.00    -0.116 NA
ATOM     20  C   UNL     1       7.265  -0.705   0.566  0.00  0.00    +0.250 A 
ENDBRANCH  12  16
ENDBRANCH   2  10
BRANCH   5  21
ATOM     21  C   UNL     1      -1.439   1.004  -1.729  0.00  0.00    +0.215 C 
BRANCH  21  22
ATOM     22  C   UNL     1      -2.763   0.991  -1.009  0.00  0.00    +0.235 A 
ATOM     23  O   UNL     1      -3.628  -0.036  -0.956  0.00  0.00    -0.419 OA
ATOM     24  C   UNL     1      -4.670   0.382  -0.210  0.00  0.00    +0.248 A 
ATOM     25  N   UNL     1      -4.418   1.619   0.150  0.00  0.00    -0.107 NA
ATOM     26  N   UNL     1      -3.279   1.977  -0.330  0.00  0.00    -0.110 NA
BRANCH  24  27
ATOM     27  C   UNL     1      -5.874  -0.403   0.133  0.00  0.00    +0.038 A 
ATOM     28  C   UNL     1      -6.011  -1.714  -0.327  0.00  0.00    +0.013 A 
ATOM     29  C   UNL     1      -7.135  -2.443   0.002  0.00  0.00    +0.001 A 
ATOM     30  C   UNL     1      -8.131  -1.875   0.776  0.00  0.00    +0.000 A 
ATOM     31  C   UNL     1      -8.004  -0.574   1.230  0.00  0.00    +0.001 A 
ATOM     32  C   UNL     1      -6.882   0.164   0.914  0.00  0.00    +0.013 A 
ENDBRANCH  24  27
ENDBRANCH  21  22
ENDBRANCH   5  21
TORSDOF 5
