REMARK  Name = m302
REMARK  9 active torsions:
REMARK  status: ('A' for Active; 'I' for Inactive)
REMARK    1  A    between atoms: C_1  and  O_2
REMARK    2  A    between atoms: O_2  and  C_3
REMARK    3  A    between atoms: C_7  and  C_8
REMARK    4  A    between atoms: N_12  and  C_13
REMARK    5  A    between atoms: N_12  and  C_14
REMARK    6  A    between atoms: C_16  and  C_17
REMARK    7  A    between atoms: C_20  and  C_22
REMARK    8  A    between atoms: C_24  and  C_25
REMARK    9  A    between atoms: C_27  and  C_28
REMARK                            x       y       z     vdW  Elec       q    Type
REMARK                         _______ _______ _______ _____ _____    ______ ____
ROOT
ATOM      1  C   UNL     1       2.772   0.155  -0.236  0.00  0.00    +0.024 A 
ATOM      2  C   UNL     1       1.950  -0.913   0.132  0.00  0.00    +0.084 A 
ATOM      3  N   UNL     1       2.440  -2.140   0.100  0.00  0.00    -0.216 NA
ATOM      4  C   UNL     1       3.694  -2.363  -0.265  0.00  0.00    +0.218 A 
ATOM      5  N   UNL     1       4.170  -3.662  -0.280  0.00  0.00    -0.306 N 
ATOM      6  C   UNL     1       3.290  -4.769   0.104  0.00  0.00    +0.132 C 
ATOM      7  C   UNL     1       5.553  -3.931  -0.680  0.00  0.00    +0.132 C 
ATOM      8  N   UNL     1       4.505  -1.376  -0.617  0.00  0.00    -0.222 NA
ATOM      9  C   UNL     1       4.088  -0.122  -0.615  0.00  0.00    +0.124 A 
ENDROOT
BRANCH   2  10
ATOM     10  C   UNL     1       0.523  -0.671   0.549  0.00  0.00    +0.185 C 
ATOM     11  O   UNL     1       0.231  -1.439   1.716  0.00  0.00    -0.367 OA
ATOM     12  C   UNL     1      -1.048  -1.030   2.197  0.00  0.00    +0.179 C 
ATOM     13  C   UNL     1      -2.135  -1.477   1.213  0.00  0.00    +0.136 C 
ATOM     14  N   UNL     1      -1.805  -0.930  -0.114  0.00  0.00    -0.290 N 
ATOM     15  C   UNL     1      -2.736  -0.312  -0.867  0.00  0.00    +0.284 C 
ATOM     16  O   UNL     1      -2.413   0.244  -1.900  0.00  0.00    -0.267 OA
ATOM     17  C   UNL     1      -0.419  -1.085  -0.587  0.00  0.00    +0.146 C 
BRANCH  15  18
ATOM     18  C   UNL     1      -4.140  -0.309  -0.442  0.00  0.00    +0.212 A 
ATOM     19  C   UNL     1      -5.164   0.382  -1.018  0.00  0.00    +0.089 A 
ATOM     20  C   UNL     1      -5.064   1.286  -2.220  0.00  0.00    +0.070 C 
ATOM     21  N   UNL     1      -6.274   0.106  -0.327  0.00  0.00    -0.218 NA
ATOM     22  C   UNL     1      -5.976  -0.713   0.646  0.00  0.00    +0.194 A 
ATOM     23  C   UNL     1      -6.951  -1.259   1.657  0.00  0.00    +0.109 C 
ATOM     24  O   UNL     1      -4.669  -0.988   0.603  0.00  0.00    -0.435 OA
ENDBRANCH  15  18
ENDBRANCH   2  10
BRANCH   1  27
ATOM     25  C   UNL     1       2.502   3.847   0.437  0.00  0.00    +0.121 A 
ATOM     26  C   UNL     1       2.986   2.550   0.421  0.00  0.00    +0.054 A 
ATOM     27  C   UNL     1       2.262   1.548  -0.220  0.00  0.00    -0.011 A 
ATOM     28  C   UNL     1       1.059   1.859  -0.852  0.00  0.00    +0.009 A 
ATOM     29  C   UNL     1       0.586   3.156  -0.835  0.00  0.00    +0.004 A 
ATOM     30  C   UNL     1       1.303   4.148  -0.194  0.00  0.00    +0.045 A 
BRANCH  25  32
ATOM     31  C   UNL     1       2.460   6.036   0.905  0.00  0.00    +0.277 C 
ATOM     32  O   UNL     1       3.203   4.826   1.067  0.00  0.00    -0.495 OA
ENDBRANCH  25  32
ENDBRANCH   1  27
TORSDOF 4
