REMARK  Name = m303
REMARK  12 active torsions:
REMARK  status: ('A' for Active; 'I' for Inactive)
REMARK    1  A    between atoms: C_1  and  C_2
REMARK    2  A    between atoms: C_2  and  O_3
REMARK    3  A    between atoms: O_3  and  C_4
REMARK    4  A    between atoms: C_4  and  C_6
REMARK    5  A    between atoms: C_7  and  S_8
REMARK    6  A    between atoms: S_8  and  N_11
REMARK    7  A    between atoms: C_14  and  C_15
REMARK    8  A    between atoms: N_17  and  C_18
REMARK    9  A    between atoms: C_23  and  C_24
REMARK   10  A    between atoms: C_27  and  C_28
REMARK   11  A    between atoms: N_29  and  C_30
REMARK   12  A    between atoms: C_31  and  C_32
REMARK                            x       y       z     vdW  Elec       q    Type
REMARK                         _______ _______ _______ _____ _____    ______ ____
ROOT
ATOM      1  N   UNL     1      -0.665  -0.836  -0.189  0.00  0.00    -0.176 NA
ATOM      2  C   UNL     1      -0.038   0.484  -0.038  0.00  0.00    +0.110 C 
ATOM      3  C   UNL     1       1.458   0.360  -0.323  0.00  0.00    +0.030 C 
ATOM      4  C   UNL     1       2.057  -0.726   0.573  0.00  0.00    +0.078 C 
ATOM      5  C   UNL     1       1.392  -2.069   0.264  0.00  0.00    +0.030 C 
ATOM      6  C   UNL     1      -0.109  -1.971   0.559  0.00  0.00    +0.110 C 
ENDROOT
BRANCH   4   7
ATOM      7  C   UNL     1       3.538  -0.829   0.316  0.00  0.00    +0.221 C 
ATOM      8  N   UNL     1       4.334   0.240   0.521  0.00  0.00    -0.270 N 
ATOM      9  H   UNL     1       3.953   1.075   0.835  0.00  0.00    +0.156 HD
ATOM     10  O   UNL     1       4.015  -1.873  -0.076  0.00  0.00    -0.275 OA
BRANCH   8  11
ATOM     11  C   UNL     1       5.704   0.145   0.283  0.00  0.00    +0.128 A 
ATOM     12  C   UNL     1       6.518   1.252   0.492  0.00  0.00    -0.010 A 
ATOM     13  C   UNL     1       5.929   2.551   0.979  0.00  0.00    +0.047 C 
ATOM     14  C   UNL     1       7.877   1.143   0.257  0.00  0.00    +0.008 A 
ATOM     15  C   UNL     1       8.376  -0.073  -0.190  0.00  0.00    +0.020 A 
ATOM     16  C   UNL     1       7.508  -1.131  -0.382  0.00  0.00    +0.113 A 
ATOM     17  N   UNL     1       6.218  -0.998  -0.144  0.00  0.00    -0.240 NA
ENDBRANCH   8  11
ENDBRANCH   4   7
BRANCH   1  18
ATOM     18  S   UNL     1      -1.969  -1.041  -1.188  0.00  0.00    +0.063 S 
ATOM     19  O   UNL     1      -1.917   0.032  -2.117  0.00  0.00    -0.153 OA
ATOM     20  O   UNL     1      -1.984  -2.422  -1.525  0.00  0.00    -0.153 OA
BRANCH  18  28
ATOM     21  C   UNL     1      -4.111   0.508  -0.018  0.00  0.00    +0.106 A 
ATOM     22  C   UNL     1      -5.181   0.231   0.806  0.00  0.00    +0.031 A 
ATOM     23  C   UNL     1      -6.195   1.229   1.303  0.00  0.00    +0.064 C 
ATOM     24  N   UNL     1      -5.168  -1.086   1.083  0.00  0.00    -0.349 N 
ATOM     25  C   UNL     1      -6.149  -1.773   1.927  0.00  0.00    +0.149 C 
ATOM     26  C   UNL     1      -4.111  -1.691   0.469  0.00  0.00    +0.043 A 
ATOM     27  C   UNL     1      -3.771  -3.156   0.555  0.00  0.00    +0.065 C 
ATOM     28  C   UNL     1      -3.419  -0.769  -0.224  0.00  0.00    +0.140 A 
BRANCH  21  29
ATOM     29  C   UNL     1      -3.736   1.818  -0.572  0.00  0.00    +0.343 C 
ATOM     30  O   UNL     1      -4.178   2.172  -1.648  0.00  0.00    -0.245 OA
BRANCH  29  31
ATOM     31  O   UNL     1      -2.902   2.626   0.112  0.00  0.00    -0.461 OA
BRANCH  31  33
ATOM     32  C   UNL     1      -1.583   4.630   0.533  0.00  0.00    +0.048 C 
ATOM     33  C   UNL     1      -2.532   3.919  -0.435  0.00  0.00    +0.229 C 
ENDBRANCH  31  33
ENDBRANCH  29  31
ENDBRANCH  21  29
ENDBRANCH  18  28
ENDBRANCH   1  18
TORSDOF 7
