REMARK  Name = m304
REMARK  8 active torsions:
REMARK  status: ('A' for Active; 'I' for Inactive)
REMARK    1  A    between atoms: C_1  and  N_2
REMARK    2  A    between atoms: N_2  and  C_3
REMARK    3  A    between atoms: C_3  and  C_4
REMARK    4  A    between atoms: C_4  and  O_5
REMARK    5  A    between atoms: C_6  and  C_8
REMARK    6  A    between atoms: C_16  and  C_17
REMARK    7  A    between atoms: C_20  and  C_22
REMARK    8  A    between atoms: C_22  and  N_23
REMARK                            x       y       z     vdW  Elec       q    Type
REMARK                         _______ _______ _______ _____ _____    ______ ____
ROOT
ATOM      1  C   UNL     1       2.576  -0.281   0.169  0.00  0.00    +0.082 A 
ATOM      2  C   UNL     1       1.647   0.655   0.498  0.00  0.00    +0.011 A 
ATOM      3  C   UNL     1       1.942   2.020   0.339  0.00  0.00    +0.014 A 
ATOM      4  C   UNL     1       3.227   2.311  -0.179  0.00  0.00    +0.109 A 
ATOM      5  N   UNL     1       3.646   3.539  -0.387  0.00  0.00    -0.248 NA
ATOM      6  C   UNL     1       2.878   4.578  -0.120  0.00  0.00    +0.112 A 
ATOM      7  C   UNL     1       1.601   4.395   0.392  0.00  0.00    +0.020 A 
ATOM      8  C   UNL     1       1.119   3.141   0.626  0.00  0.00    +0.012 A 
ATOM      9  S   UNL     1       3.948   0.704  -0.407  0.00  0.00    -0.064 S 
ENDROOT
BRANCH   2  10
ATOM     10  C   UNL     1       0.305   0.231   1.038  0.00  0.00    +0.167 C 
ATOM     11  O   UNL     1       0.489  -0.786   2.022  0.00  0.00    -0.369 OA
ATOM     12  C   UNL     1      -0.770  -1.014   2.652  0.00  0.00    +0.179 C 
ATOM     13  C   UNL     1      -1.732  -1.672   1.657  0.00  0.00    +0.136 C 
ATOM     14  N   UNL     1      -1.820  -0.810   0.465  0.00  0.00    -0.295 N 
ATOM     15  C   UNL     1      -3.010  -0.489  -0.081  0.00  0.00    +0.233 C 
ATOM     16  O   UNL     1      -3.055   0.222  -1.062  0.00  0.00    -0.274 OA
ATOM     17  C   UNL     1      -0.557  -0.313  -0.107  0.00  0.00    +0.144 C 
BRANCH  15  18
ATOM     18  C   UNL     1      -4.284  -1.015   0.529  0.00  0.00    +0.203 C 
BRANCH  18  19
ATOM     19  N   UNL     1      -5.431  -0.527  -0.242  0.00  0.00    -0.293 N 
ATOM     20  C   UNL     1      -6.085   0.618   0.015  0.00  0.00    +0.216 C 
ATOM     21  O   UNL     1      -5.814   1.387   0.912  0.00  0.00    -0.276 OA
ATOM     22  C   UNL     1      -7.204   0.813  -0.985  0.00  0.00    +0.097 C 
ATOM     23  C   UNL     1      -6.872  -0.176  -2.126  0.00  0.00    +0.028 C 
ATOM     24  C   UNL     1      -6.016  -1.231  -1.389  0.00  0.00    +0.109 C 
ENDBRANCH  18  19
ENDBRANCH  15  18
ENDBRANCH   2  10
BRANCH   1  27
ATOM     25  C   UNL     1       3.453  -3.970   0.109  0.00  0.00    +0.132 C 
ATOM     26  N   UNL     1       3.565  -2.510   0.062  0.00  0.00    -0.298 N 
ATOM     27  C   UNL     1       2.473  -1.744   0.260  0.00  0.00    +0.253 C 
ATOM     28  O   UNL     1       1.403  -2.264   0.514  0.00  0.00    -0.269 OA
BRANCH  26  29
ATOM     29  C   UNL     1       4.862  -1.882  -0.199  0.00  0.00    +0.135 C 
BRANCH  29  30
ATOM     30  C   UNL     1       5.103  -1.818  -1.709  0.00  0.00    +0.174 C 
BRANCH  30  31
ATOM     31  O   UNL     1       4.136  -0.952  -2.308  0.00  0.00    -0.393 OA
ATOM     32  H   UNL     1       4.323  -0.940  -3.257  0.00  0.00    +0.209 HD
ENDBRANCH  30  31
ENDBRANCH  29  30
ENDBRANCH  26  29
ENDBRANCH   1  27
TORSDOF 7
