REMARK  Name = m305
REMARK  7 active torsions:
REMARK  status: ('A' for Active; 'I' for Inactive)
REMARK    1  A    between atoms: N_1  and  C_2
REMARK    2  A    between atoms: C_3  and  C_4
REMARK    3  A    between atoms: C_7  and  S_8
REMARK    4  A    between atoms: S_8  and  C_9
REMARK    5  A    between atoms: C_9  and  C_10
REMARK    6  A    between atoms: N_18  and  C_19
REMARK    7  A    between atoms: C_19  and  C_20
REMARK                            x       y       z     vdW  Elec       q    Type
REMARK                         _______ _______ _______ _____ _____    ______ ____
ROOT
ATOM      1  C   UNL     1      -1.412   0.755  -0.026  0.00  0.00    +0.173 A 
ATOM      2  N   UNL     1      -0.618  -0.316  -0.377  0.00  0.00    -0.299 N 
ATOM      3  C   UNL     1       0.670   0.098  -0.171  0.00  0.00    +0.192 A 
ATOM      4  N   UNL     1       0.616   1.330   0.280  0.00  0.00    -0.122 NA
ATOM      5  N   UNL     1      -0.606   1.718   0.366  0.00  0.00    -0.128 NA
ENDROOT
BRANCH   1  14
ATOM      6  C   UNL     1      -3.697   1.842   0.267  0.00  0.00    +0.052 A 
ATOM      7  C   UNL     1      -5.135   1.666   0.141  0.00  0.00    +0.029 A 
ATOM      8  C   UNL     1      -5.543   0.403  -0.347  0.00  0.00    +0.111 A 
ATOM      9  N   UNL     1      -6.806   0.086  -0.522  0.00  0.00    -0.248 NA
ATOM     10  C   UNL     1      -7.773   0.942  -0.253  0.00  0.00    +0.112 A 
ATOM     11  C   UNL     1      -7.477   2.209   0.226  0.00  0.00    +0.020 A 
ATOM     12  S   UNL     1      -4.013  -0.465  -0.595  0.00  0.00    -0.064 S 
ATOM     13  C   UNL     1      -6.171   2.590   0.426  0.00  0.00    +0.014 A 
ATOM     14  C   UNL     1      -2.879   0.808  -0.075  0.00  0.00    +0.080 A 
BRANCH   6  15
ATOM     15  N   UNL     1      -3.164   3.049   0.735  0.00  0.00    -0.356 N 
ATOM     16  H   UNL     1      -3.755   3.781   0.972  0.00  0.00    +0.142 HD
ATOM     17  H   UNL     1      -2.203   3.155   0.819  0.00  0.00    +0.142 HD
ENDBRANCH   6  15
ENDBRANCH   1  14
BRANCH   2  18
ATOM     18  C   UNL     1      -1.060  -1.621  -0.875  0.00  0.00    +0.157 C 
BRANCH  18  19
ATOM     19  C   UNL     1      -1.270  -2.572   0.304  0.00  0.00    +0.138 C 
ATOM     20  O   UNL     1      -0.008  -2.865   0.926  0.00  0.00    -0.375 OA
ATOM     21  C   UNL     1      -0.075  -4.229   1.395  0.00  0.00    +0.160 C 
ATOM     22  C   UNL     1      -0.821  -4.967   0.254  0.00  0.00    +0.031 C 
ATOM     23  C   UNL     1      -1.855  -3.907  -0.197  0.00  0.00    +0.035 C 
ENDBRANCH  18  19
ENDBRANCH   2  18
BRANCH   3  24
ATOM     24  S   UNL     1       2.129  -0.849  -0.451  0.00  0.00    -0.077 S 
BRANCH  24  25
ATOM     25  C   UNL     1       3.385   0.353   0.050  0.00  0.00    +0.173 C 
BRANCH  25  26
ATOM     26  C   UNL     1       4.755  -0.255  -0.110  0.00  0.00    +0.226 C 
ATOM     27  N   UNL     1       5.852   0.462   0.205  0.00  0.00    -0.296 N 
ATOM     28  C   UNL     1       5.745   1.844   0.702  0.00  0.00    +0.136 C 
ATOM     29  C   UNL     1       6.745   2.710  -0.064  0.00  0.00    +0.179 C 
ATOM     30  O   UNL     1       8.055   2.159   0.064  0.00  0.00    -0.377 OA
ATOM     31  C   UNL     1       8.080   0.928  -0.657  0.00  0.00    +0.179 C 
ATOM     32  C   UNL     1       7.204  -0.105   0.060  0.00  0.00    +0.136 C 
ATOM     33  O   UNL     1       4.870  -1.390  -0.521  0.00  0.00    -0.275 OA
ENDBRANCH  25  26
ENDBRANCH  24  25
ENDBRANCH   3  24
TORSDOF 7
