REMARK  Name = m306
REMARK  9 active torsions:
REMARK  status: ('A' for Active; 'I' for Inactive)
REMARK    1  A    between atoms: C_1  and  C_2
REMARK    2  A    between atoms: N_4  and  C_5
REMARK    3  A    between atoms: C_7  and  C_8
REMARK    4  A    between atoms: C_8  and  N_9
REMARK    5  A    between atoms: C_13  and  C_14
REMARK    6  A    between atoms: C_15  and  C_16
REMARK    7  A    between atoms: N_18  and  C_19
REMARK    8  A    between atoms: C_19  and  C_20
REMARK    9  A    between atoms: C_20  and  O_21
REMARK                            x       y       z     vdW  Elec       q    Type
REMARK                         _______ _______ _______ _____ _____    ______ ____
ROOT
ATOM      1  C   UNL     1      -1.651   0.921  -0.307  0.00  0.00    +0.011 A 
ATOM      2  C   UNL     1      -2.170   2.222  -0.192  0.00  0.00    +0.014 A 
ATOM      3  C   UNL     1      -3.501   2.309   0.285  0.00  0.00    +0.109 A 
ATOM      4  N   UNL     1      -4.124   3.455   0.442  0.00  0.00    -0.248 NA
ATOM      5  C   UNL     1      -3.534   4.599   0.154  0.00  0.00    +0.112 A 
ATOM      6  C   UNL     1      -2.232   4.617  -0.325  0.00  0.00    +0.020 A 
ATOM      7  S   UNL     1      -3.948   0.611   0.555  0.00  0.00    -0.064 S 
ATOM      8  C   UNL     1      -1.541   3.455  -0.506  0.00  0.00    +0.012 A 
ATOM      9  C   UNL     1      -2.417  -0.147   0.041  0.00  0.00    +0.082 A 
ENDROOT
BRANCH   1  12
ATOM     10  N   UNL     1       2.050   0.222  -0.109  0.00  0.00    -0.293 NA
ATOM     11  C   UNL     1       0.667   0.358   0.367  0.00  0.00    +0.121 C 
ATOM     12  C   UNL     1      -0.246   0.711  -0.809  0.00  0.00    +0.164 C 
ATOM     13  O   UNL     1      -0.236  -0.352  -1.762  0.00  0.00    -0.369 OA
ATOM     14  C   UNL     1       1.098  -0.460  -2.260  0.00  0.00    +0.176 C 
ATOM     15  C   UNL     1       2.045  -0.842  -1.122  0.00  0.00    +0.113 C 
BRANCH  10  16
ATOM     16  C   UNL     1       2.839  -0.278   1.025  0.00  0.00    +0.123 C 
BRANCH  16  19
ATOM     17  C   UNL     1       4.661   2.313   1.142  0.00  0.00    +0.068 C 
ATOM     18  C   UNL     1       5.110   0.933   0.734  0.00  0.00    +0.064 A 
ATOM     19  C   UNL     1       4.306  -0.210   0.685  0.00  0.00    +0.007 A 
ATOM     20  C   UNL     1       5.075  -1.243   0.270  0.00  0.00    +0.113 A 
ATOM     21  N   UNL     1       6.324  -0.772   0.073  0.00  0.00    -0.274 N 
ATOM     22  C   UNL     1       7.480  -1.554  -0.374  0.00  0.00    +0.172 C 
ATOM     23  N   UNL     1       6.321   0.597   0.371  0.00  0.00    -0.176 NA
ENDBRANCH  16  19
ENDBRANCH  10  16
ENDBRANCH   1  12
BRANCH   9  24
ATOM     24  C   UNL     1      -2.069  -1.574   0.003  0.00  0.00    +0.251 C 
ATOM     25  N   UNL     1      -2.970  -2.498   0.391  0.00  0.00    -0.309 N 
ATOM     26  H   UNL     1      -3.848  -2.221   0.696  0.00  0.00    +0.149 HD
ATOM     27  O   UNL     1      -0.967  -1.922  -0.379  0.00  0.00    -0.270 OA
BRANCH  25  28
ATOM     28  C   UNL     1      -2.623  -3.921   0.353  0.00  0.00    +0.132 C 
BRANCH  28  29
ATOM     29  C   UNL     1      -3.813  -4.749   0.841  0.00  0.00    +0.174 C 
BRANCH  29  30
ATOM     30  O   UNL     1      -4.903  -4.601  -0.071  0.00  0.00    -0.393 OA
ATOM     31  H   UNL     1      -5.630  -5.138   0.272  0.00  0.00    +0.209 HD
ENDBRANCH  29  30
ENDBRANCH  28  29
ENDBRANCH  25  28
ENDBRANCH   9  24
TORSDOF 7
