REMARK  Name = m307
REMARK  11 active torsions:
REMARK  status: ('A' for Active; 'I' for Inactive)
REMARK    1  A    between atoms: C_1  and  O_2
REMARK    2  A    between atoms: O_2  and  C_3
REMARK    3  A    between atoms: C_8  and  C_9
REMARK    4  A    between atoms: C_11  and  C_12
REMARK    5  A    between atoms: C_12  and  N_13
REMARK    6  A    between atoms: C_16  and  C_17
REMARK    7  A    between atoms: C_19  and  C_20
REMARK    8  A    between atoms: C_23  and  C_24
REMARK    9  A    between atoms: C_25  and  C_26
REMARK   10  A    between atoms: C_30  and  C_31
REMARK   11  A    between atoms: C_32  and  C_33
REMARK                            x       y       z     vdW  Elec       q    Type
REMARK                         _______ _______ _______ _____ _____    ______ ____
ROOT
ATOM      1  N   UNL     1       0.902   2.414  -0.723  0.00  0.00    -0.242 N 
ATOM      2  C   UNL     1       0.033   1.515  -1.229  0.00  0.00    +0.069 A 
ATOM      3  C   UNL     1       0.250   0.614  -2.417  0.00  0.00    +0.068 C 
ATOM      4  C   UNL     1      -1.082   1.581  -0.439  0.00  0.00    +0.172 A 
ATOM      5  N   UNL     1      -0.825   2.522   0.492  0.00  0.00    -0.124 NA
ATOM      6  N   UNL     1       0.356   2.989   0.289  0.00  0.00    -0.064 NA
ENDROOT
BRANCH   4   7
ATOM      7  C   UNL     1      -2.319   0.787  -0.580  0.00  0.00    +0.281 A 
ATOM      8  O   UNL     1      -2.570  -0.144  -1.514  0.00  0.00    -0.331 OA
ATOM      9  N   UNL     1      -3.677  -0.610  -1.347  0.00  0.00    -0.056 NA
ATOM     10  C   UNL     1      -4.259  -0.043  -0.321  0.00  0.00    +0.202 A 
ATOM     11  N   UNL     1      -3.394   0.861   0.184  0.00  0.00    -0.186 NA
BRANCH  10  12
ATOM     12  C   UNL     1      -5.619  -0.340   0.192  0.00  0.00    +0.023 A 
ATOM     13  C   UNL     1      -6.409  -1.301  -0.435  0.00  0.00    +0.015 A 
ATOM     14  C   UNL     1      -7.672  -1.577   0.049  0.00  0.00    -0.047 A 
ATOM     15  C   UNL     1      -8.525  -2.620  -0.625  0.00  0.00    +0.044 C 
ATOM     16  C   UNL     1      -8.158  -0.894   1.149  0.00  0.00    -0.047 A 
ATOM     17  C   UNL     1      -9.539  -1.194   1.670  0.00  0.00    +0.044 C 
ATOM     18  C   UNL     1      -7.380   0.065   1.773  0.00  0.00    +0.004 A 
ATOM     19  C   UNL     1      -6.114   0.345   1.300  0.00  0.00    +0.012 A 
ENDBRANCH  10  12
ENDBRANCH   4   7
BRANCH   1  20
ATOM     20  C   UNL     1       2.243   2.694  -1.244  0.00  0.00    +0.204 C 
BRANCH  20  25
ATOM     21  C   UNL     1       4.506   0.098  -0.140  0.00  0.00    +0.231 A 
ATOM     22  O   UNL     1       4.700   1.004   0.834  0.00  0.00    -0.440 OA
ATOM     23  C   UNL     1       3.915   2.067   0.567  0.00  0.00    +0.128 A 
ATOM     24  C   UNL     1       3.805   3.326   1.388  0.00  0.00    +0.088 C 
ATOM     25  C   UNL     1       3.243   1.794  -0.566  0.00  0.00    +0.104 A 
ATOM     26  N   UNL     1       3.622   0.576  -0.985  0.00  0.00    -0.212 NA
BRANCH  21  28
ATOM     27  C   UNL     1       6.109  -1.606   0.725  0.00  0.00    +0.132 A 
ATOM     28  C   UNL     1       5.171  -1.217  -0.240  0.00  0.00    +0.078 A 
ATOM     29  C   UNL     1       4.877  -2.073  -1.302  0.00  0.00    +0.017 A 
ATOM     30  C   UNL     1       5.501  -3.300  -1.389  0.00  0.00    +0.001 A 
ATOM     31  C   UNL     1       6.423  -3.684  -0.431  0.00  0.00    +0.004 A 
ATOM     32  C   UNL     1       6.727  -2.842   0.622  0.00  0.00    +0.046 A 
BRANCH  27  34
ATOM     33  C   UNL     1       7.378  -1.453   2.561  0.00  0.00    +0.277 C 
ATOM     34  O   UNL     1       6.407  -0.779   1.759  0.00  0.00    -0.494 OA
ENDBRANCH  27  34
ENDBRANCH  21  28
ENDBRANCH  20  25
ENDBRANCH   1  20
TORSDOF 6
