REMARK  Name = m308
REMARK  8 active torsions:
REMARK  status: ('A' for Active; 'I' for Inactive)
REMARK    1  A    between atoms: C_1  and  C_2
REMARK    2  A    between atoms: C_8  and  C_10
REMARK    3  A    between atoms: N_13  and  S_14
REMARK    4  A    between atoms: S_14  and  C_17
REMARK    5  A    between atoms: C_18  and  C_19
REMARK    6  A    between atoms: N_21  and  C_22
REMARK    7  A    between atoms: C_22  and  C_23
REMARK    8  A    between atoms: C_34  and  C_35
REMARK                            x       y       z     vdW  Elec       q    Type
REMARK                         _______ _______ _______ _____ _____    ______ ____
ROOT
ATOM      1  S   UNL     1      -0.029  -3.686   0.338  0.00  0.00    +0.064 S 
ATOM      2  O   UNL     1      -0.674  -3.949   1.576  0.00  0.00    -0.153 OA
ATOM      3  O   UNL     1       0.195  -4.640  -0.691  0.00  0.00    -0.153 OA
ENDROOT
BRANCH   1   4
ATOM      4  C   UNL     1      -0.945  -2.381  -0.411  0.00  0.00    +0.148 A 
ATOM      5  C   UNL     1      -1.740  -1.494   0.232  0.00  0.00    +0.063 A 
ATOM      6  C   UNL     1      -1.995  -1.445   1.717  0.00  0.00    +0.067 C 
ATOM      7  N   UNL     1      -2.256  -0.658  -0.692  0.00  0.00    -0.258 N 
ATOM      8  N   UNL     1      -1.769  -1.048  -1.946  0.00  0.00    -0.174 NA
ATOM      9  C   UNL     1      -0.983  -2.080  -1.777  0.00  0.00    +0.087 A 
ATOM     10  C   UNL     1      -0.248  -2.819  -2.865  0.00  0.00    +0.069 C 
BRANCH   7  11
ATOM     11  C   UNL     1      -3.168   0.458  -0.431  0.00  0.00    +0.239 C 
BRANCH  11  12
ATOM     12  C   UNL     1      -4.592  -0.031  -0.502  0.00  0.00    +0.241 C 
ATOM     13  N   UNL     1      -5.610   0.828  -0.294  0.00  0.00    -0.269 N 
ATOM     14  C   UNL     1      -5.466   2.187   0.001  0.00  0.00    +0.040 A 
ATOM     15  C   UNL     1      -6.694   2.809   0.157  0.00  0.00    -0.024 A 
ATOM     16  C   UNL     1      -6.764   4.158   0.448  0.00  0.00    +0.005 A 
ATOM     17  C   UNL     1      -5.606   4.901   0.580  0.00  0.00    +0.000 A 
ATOM     18  C   UNL     1      -4.375   4.290   0.420  0.00  0.00    +0.002 A 
ATOM     19  C   UNL     1      -7.783   1.779  -0.038  0.00  0.00    +0.056 C 
ATOM     20  C   UNL     1      -4.300   2.945   0.130  0.00  0.00    +0.024 A 
ATOM     21  C   UNL     1      -7.031   0.471  -0.337  0.00  0.00    +0.118 C 
ATOM     22  O   UNL     1      -4.822  -1.196  -0.747  0.00  0.00    -0.273 OA
ENDBRANCH  11  12
ENDBRANCH   7  11
ENDBRANCH   1   4
BRANCH   1  26
ATOM     23  C   UNL     1       3.542  -1.178   0.943  0.00  0.00    +0.078 C 
ATOM     24  C   UNL     1       3.156  -1.754  -0.421  0.00  0.00    +0.030 C 
ATOM     25  C   UNL     1       2.574  -3.158  -0.233  0.00  0.00    +0.110 C 
ATOM     26  N   UNL     1       1.464  -3.084   0.727  0.00  0.00    -0.176 NA
ATOM     27  C   UNL     1       1.703  -2.466   2.038  0.00  0.00    +0.110 C 
ATOM     28  C   UNL     1       2.296  -1.070   1.824  0.00  0.00    +0.030 C 
BRANCH  23  35
ATOM     29  C   UNL     1       9.009   3.124  -1.539  0.00  0.00    +0.044 C 
ATOM     30  C   UNL     1       7.698   2.949  -0.817  0.00  0.00    -0.046 A 
ATOM     31  C   UNL     1       7.089   1.708  -0.748  0.00  0.00    +0.047 A 
ATOM     32  C   UNL     1       5.882   1.584  -0.069  0.00  0.00    +0.125 A 
ATOM     33  N   UNL     1       5.261   0.339   0.014  0.00  0.00    -0.270 N 
ATOM     34  H   UNL     1       5.630  -0.420  -0.464  0.00  0.00    +0.156 HD
ATOM     35  C   UNL     1       4.147   0.190   0.758  0.00  0.00    +0.221 C 
ATOM     36  O   UNL     1       3.632   1.156   1.280  0.00  0.00    -0.275 OA
ATOM     37  N   UNL     1       5.315   2.639   0.495  0.00  0.00    -0.240 NA
ATOM     38  C   UNL     1       5.869   3.835   0.440  0.00  0.00    +0.113 A 
ATOM     39  C   UNL     1       7.070   4.029  -0.212  0.00  0.00    +0.023 A 
ENDBRANCH  23  35
ENDBRANCH   1  26
TORSDOF 5
