REMARK  Name = m309
REMARK  7 active torsions:
REMARK  status: ('A' for Active; 'I' for Inactive)
REMARK    1  A    between atoms: C_1  and  C_2
REMARK    2  A    between atoms: N_4  and  C_5
REMARK    3  A    between atoms: C_5  and  C_6
REMARK    4  A    between atoms: C_17  and  C_18
REMARK    5  A    between atoms: C_19  and  S_20
REMARK    6  A    between atoms: S_20  and  N_23
REMARK    7  A    between atoms: C_27  and  C_28
REMARK                            x       y       z     vdW  Elec       q    Type
REMARK                         _______ _______ _______ _____ _____    ______ ____
ROOT
ATOM      1  C   UNL     1       0.677   4.614   1.730  0.00  0.00    +0.069 C 
ATOM      2  C   UNL     1       1.109   3.443   0.886  0.00  0.00    +0.087 A 
ATOM      3  C   UNL     1       0.428   2.939  -0.226  0.00  0.00    +0.149 A 
ATOM      4  C   UNL     1       1.136   1.891  -0.708  0.00  0.00    +0.063 A 
ATOM      5  C   UNL     1       0.774   1.049  -1.904  0.00  0.00    +0.067 C 
ATOM      6  N   UNL     1       2.222   1.733   0.077  0.00  0.00    -0.258 N 
ATOM      7  N   UNL     1       2.183   2.719   1.071  0.00  0.00    -0.174 NA
ENDROOT
BRANCH   3   8
ATOM      8  S   UNL     1      -1.080   3.563  -0.890  0.00  0.00    +0.064 S 
ATOM      9  O   UNL     1      -1.108   3.144  -2.247  0.00  0.00    -0.153 OA
ATOM     10  O   UNL     1      -1.170   4.909  -0.443  0.00  0.00    -0.153 OA
BRANCH   8  11
ATOM     11  N   UNL     1      -2.320   2.758  -0.144  0.00  0.00    -0.176 NA
ATOM     12  C   UNL     1      -2.854   1.513  -0.713  0.00  0.00    +0.122 C 
ATOM     13  C   UNL     1      -2.820   0.426   0.372  0.00  0.00    +0.091 C 
ATOM     14  C   UNL     1      -3.571   0.924   1.609  0.00  0.00    +0.015 C 
ATOM     15  C   UNL     1      -2.881   2.174   2.158  0.00  0.00    +0.018 C 
ATOM     16  C   UNL     1      -2.912   3.278   1.097  0.00  0.00    +0.109 C 
BRANCH  13  17
ATOM     17  C   UNL     1      -3.482  -0.824  -0.149  0.00  0.00    +0.223 C 
ATOM     18  N   UNL     1      -3.575  -1.915   0.636  0.00  0.00    -0.270 N 
ATOM     19  H   UNL     1      -3.150  -1.923   1.508  0.00  0.00    +0.156 HD
ATOM     20  C   UNL     1      -4.282  -3.033   0.195  0.00  0.00    +0.125 A 
ATOM     21  N   UNL     1      -4.776  -3.054  -1.032  0.00  0.00    -0.240 NA
ATOM     22  C   UNL     1      -5.446  -4.093  -1.491  0.00  0.00    +0.113 A 
ATOM     23  C   UNL     1      -5.667  -5.200  -0.695  0.00  0.00    +0.020 A 
ATOM     24  C   UNL     1      -5.169  -5.216   0.601  0.00  0.00    +0.005 A 
ATOM     25  C   UNL     1      -4.465  -4.113   1.051  0.00  0.00    +0.044 A 
ATOM     26  O   UNL     1      -3.930  -0.847  -1.276  0.00  0.00    -0.275 OA
ENDBRANCH  13  17
ENDBRANCH   8  11
ENDBRANCH   3   8
BRANCH   6  27
ATOM     27  C   UNL     1       3.259   0.710  -0.082  0.00  0.00    +0.239 C 
BRANCH  27  28
ATOM     28  C   UNL     1       2.879  -0.517   0.705  0.00  0.00    +0.241 C 
ATOM     29  N   UNL     1       3.689  -1.594   0.707  0.00  0.00    -0.269 N 
ATOM     30  C   UNL     1       4.900  -1.688   0.013  0.00  0.00    +0.040 A 
ATOM     31  C   UNL     1       5.508  -2.917   0.213  0.00  0.00    -0.024 A 
ATOM     32  C   UNL     1       6.720  -3.204  -0.386  0.00  0.00    +0.005 A 
ATOM     33  C   UNL     1       7.339  -2.262  -1.187  0.00  0.00    +0.000 A 
ATOM     34  C   UNL     1       6.743  -1.031  -1.387  0.00  0.00    +0.002 A 
ATOM     35  C   UNL     1       4.629  -3.748   1.120  0.00  0.00    +0.056 C 
ATOM     36  C   UNL     1       5.534  -0.740  -0.792  0.00  0.00    +0.024 A 
ATOM     37  C   UNL     1       3.427  -2.841   1.431  0.00  0.00    +0.118 C 
ATOM     38  O   UNL     1       1.843  -0.536   1.336  0.00  0.00    -0.273 OA
ENDBRANCH  27  28
ENDBRANCH   6  27
TORSDOF 5
