REMARK  Name = m310
REMARK  6 active torsions:
REMARK  status: ('A' for Active; 'I' for Inactive)
REMARK    1  A    between atoms: C_1  and  N_2
REMARK    2  A    between atoms: N_2  and  C_3
REMARK    3  A    between atoms: C_3  and  C_4
REMARK    4  A    between atoms: C_12  and  C_14
REMARK    5  A    between atoms: C_16  and  C_17
REMARK    6  A    between atoms: C_24  and  C_25
REMARK                            x       y       z     vdW  Elec       q    Type
REMARK                         _______ _______ _______ _____ _____    ______ ____
ROOT
ATOM      1  C   UNL     1       0.662  -0.521  -0.546  0.00  0.00    +0.113 A 
ATOM      2  N   UNL     1       0.819   0.842  -0.399  0.00  0.00    -0.278 N 
ATOM      3  C   UNL     1       2.061   1.361  -0.125  0.00  0.00    +0.171 A 
ATOM      4  C   UNL     1       1.887   2.751  -0.029  0.00  0.00    +0.169 A 
ATOM      5  N   UNL     1       0.579   3.001  -0.240  0.00  0.00    -0.229 NA
ATOM      6  N   UNL     1       3.124   0.570  -0.007  0.00  0.00    -0.224 NA
ATOM      7  C   UNL     1       3.016  -0.744  -0.146  0.00  0.00    +0.110 A 
ATOM      8  C   UNL     1      -0.054   1.883  -0.455  0.00  0.00    +0.206 A 
ATOM      9  C   UNL     1       1.755  -1.327  -0.424  0.00  0.00    +0.063 A 
ENDROOT
BRANCH   4  10
ATOM     10  C   UNL     1       2.929   3.741   0.247  0.00  0.00    +0.264 C 
ATOM     11  O   UNL     1       4.080   3.383   0.419  0.00  0.00    -0.269 OA
ATOM     12  N   UNL     1       2.615   5.051   0.310  0.00  0.00    -0.324 N 
ATOM     13  H   UNL     1       3.305   5.707   0.493  0.00  0.00    +0.145 HD
ATOM     14  H   UNL     1       1.698   5.336   0.173  0.00  0.00    +0.145 HD
ENDBRANCH   4  10
BRANCH   7  15
ATOM     15  C   UNL     1       4.207  -1.597  -0.011  0.00  0.00    +0.153 A 
ATOM     16  O   UNL     1       4.235  -2.941  -0.122  0.00  0.00    -0.461 OA
ATOM     17  C   UNL     1       5.491  -3.376   0.057  0.00  0.00    +0.196 A 
ATOM     18  C   UNL     1       6.288  -2.313   0.296  0.00  0.00    +0.042 A 
ATOM     19  C   UNL     1       5.474  -1.168   0.255  0.00  0.00    +0.051 A 
ENDBRANCH   7  15
BRANCH   1  22
ATOM     20  C   UNL     1      -0.970  -1.463   1.553  0.00  0.00    +0.132 C 
ATOM     21  N   UNL     1      -1.418  -1.597   0.165  0.00  0.00    -0.295 N 
ATOM     22  C   UNL     1      -0.666  -1.097  -0.837  0.00  0.00    +0.264 C 
ATOM     23  O   UNL     1      -1.082  -1.121  -1.979  0.00  0.00    -0.268 OA
BRANCH  21  24
ATOM     24  C   UNL     1      -2.682  -2.273  -0.136  0.00  0.00    +0.145 C 
BRANCH  24  25
ATOM     25  C   UNL     1      -3.803  -1.265  -0.137  0.00  0.00    +0.005 A 
ATOM     26  C   UNL     1      -4.287  -0.768   1.061  0.00  0.00    +0.131 A 
ATOM     27  F   UNL     1      -3.752  -1.183   2.231  0.00  0.00    -0.205 F 
ATOM     28  C   UNL     1      -5.313   0.162   1.060  0.00  0.00    +0.077 A 
ATOM     29  C   UNL     1      -5.860   0.586  -0.138  0.00  0.00    +0.126 A 
ATOM     30  F   UNL     1      -6.864   1.489  -0.141  0.00  0.00    -0.205 F 
ATOM     31  C   UNL     1      -5.378   0.083  -1.335  0.00  0.00    +0.039 A 
ATOM     32  C   UNL     1      -4.350  -0.842  -1.333  0.00  0.00    +0.011 A 
ENDBRANCH  24  25
ENDBRANCH  21  24
ENDBRANCH   1  22
TORSDOF 5
