REMARK  Name = m311
REMARK  7 active torsions:
REMARK  status: ('A' for Active; 'I' for Inactive)
REMARK    1  A    between atoms: C_1  and  C_2
REMARK    2  A    between atoms: C_2  and  C_3
REMARK    3  A    between atoms: C_7  and  N_8
REMARK    4  A    between atoms: N_17  and  C_18
REMARK    5  A    between atoms: C_18  and  C_19
REMARK    6  A    between atoms: C_22  and  C_23
REMARK    7  A    between atoms: N_25  and  C_26
REMARK                            x       y       z     vdW  Elec       q    Type
REMARK                         _______ _______ _______ _____ _____    ______ ____
ROOT
ATOM      1  C   UNL     1       2.012  -0.002   2.092  0.00  0.00    +0.047 C 
ATOM      2  C   UNL     1       2.429   0.203   0.635  0.00  0.00    +0.135 C 
ATOM      3  C   UNL     1       1.510   1.196  -0.049  0.00  0.00    +0.251 C 
ATOM      4  O   UNL     1       1.333   2.358   0.247  0.00  0.00    -0.272 OA
ATOM      5  N   UNL     1       0.923   0.512  -1.056  0.00  0.00    -0.220 N 
ATOM      6  C   UNL     1       1.344  -0.758  -1.101  0.00  0.00    +0.310 C 
ATOM      7  O   UNL     1       0.959  -1.568  -1.922  0.00  0.00    -0.252 OA
ATOM      8  N   UNL     1       2.240  -1.037  -0.138  0.00  0.00    -0.281 N 
ATOM      9  H   UNL     1       2.676  -1.890   0.018  0.00  0.00    +0.152 HD
ENDROOT
BRANCH   2  10
ATOM     10  C   UNL     1       3.861   0.664   0.554  0.00  0.00    -0.014 A 
ATOM     11  C   UNL     1       4.882  -0.264   0.482  0.00  0.00    +0.034 A 
ATOM     12  C   UNL     1       6.201   0.162   0.403  0.00  0.00    +0.069 A 
ATOM     13  C   UNL     1       6.490   1.520   0.407  0.00  0.00    +0.028 A 
ATOM     14  C   UNL     1       5.466   2.443   0.485  0.00  0.00    +0.002 A 
ATOM     15  C   UNL     1       4.153   2.016   0.559  0.00  0.00    +0.006 A 
BRANCH  12  16
ATOM     16  N   UNL     1       7.239  -0.778   0.325  0.00  0.00    -0.200 N 
ATOM     17  N   UNL     1       7.252  -1.976  -0.410  0.00  0.00    -0.039 NA
ATOM     18  N   UNL     1       8.399  -2.527  -0.198  0.00  0.00    -0.023 NA
ATOM     19  N   UNL     1       9.099  -1.802   0.598  0.00  0.00    -0.116 NA
ATOM     20  C   UNL     1       8.438  -0.728   0.944  0.00  0.00    +0.250 A 
ENDBRANCH  12  16
ENDBRANCH   2  10
BRANCH   5  21
ATOM     21  C   UNL     1      -0.052   1.089  -1.984  0.00  0.00    +0.153 C 
BRANCH  21  22
ATOM     22  C   UNL     1      -1.442   0.906  -1.431  0.00  0.00    -0.030 A 
ATOM     23  C   UNL     1      -2.165  -0.229  -1.749  0.00  0.00    +0.006 A 
ATOM     24  C   UNL     1      -3.436  -0.406  -1.242  0.00  0.00    +0.013 A 
ATOM     25  C   UNL     1      -3.996   0.570  -0.416  0.00  0.00    +0.037 A 
ATOM     26  C   UNL     1      -3.262   1.716  -0.103  0.00  0.00    +0.013 A 
ATOM     27  C   UNL     1      -1.990   1.877  -0.612  0.00  0.00    +0.006 A 
BRANCH  25  28
ATOM     28  C   UNL     1      -5.359   0.391   0.126  0.00  0.00    +0.248 C 
ATOM     29  N   UNL     1      -6.065  -0.717  -0.178  0.00  0.00    -0.282 N 
ATOM     30  H   UNL     1      -5.650  -1.433  -0.684  0.00  0.00    +0.155 HD
ATOM     31  O   UNL     1      -5.845   1.242   0.845  0.00  0.00    -0.270 OA
BRANCH  29  32
ATOM     32  C   UNL     1      -7.395  -0.834   0.237  0.00  0.00    +0.034 A 
ATOM     33  C   UNL     1      -7.889  -2.064   0.653  0.00  0.00    +0.023 A 
ATOM     34  C   UNL     1      -9.201  -2.175   1.068  0.00  0.00    +0.002 A 
ATOM     35  C   UNL     1     -10.027  -1.067   1.058  0.00  0.00    +0.000 A 
ATOM     36  C   UNL     1      -9.541   0.158   0.639  0.00  0.00    +0.002 A 
ATOM     37  C   UNL     1      -8.227   0.278   0.229  0.00  0.00    +0.023 A 
ENDBRANCH  29  32
ENDBRANCH  25  28
ENDBRANCH  21  22
ENDBRANCH   5  21
TORSDOF 6
