REMARK  Name = m312
REMARK  7 active torsions:
REMARK  status: ('A' for Active; 'I' for Inactive)
REMARK    1  A    between atoms: C_1  and  O_2
REMARK    2  A    between atoms: O_2  and  C_3
REMARK    3  A    between atoms: C_6  and  N_7
REMARK    4  A    between atoms: C_8  and  C_10
REMARK    5  A    between atoms: C_10  and  N_11
REMARK    6  A    between atoms: C_30  and  O_31
REMARK    7  A    between atoms: O_31  and  C_32
REMARK                            x       y       z     vdW  Elec       q    Type
REMARK                         _______ _______ _______ _____ _____    ______ ____
ROOT
ATOM      1  N   UNL     1      -0.720  -0.606   1.334  0.00  0.00    -0.203 N 
ATOM      2  C   UNL     1      -1.361  -1.643   0.756  0.00  0.00    +0.352 A 
ATOM      3  O   UNL     1      -0.962  -2.793   0.700  0.00  0.00    -0.244 OA
ATOM      4  N   UNL     1      -2.521  -1.180   0.256  0.00  0.00    -0.239 N 
ATOM      5  C   UNL     1      -2.598   0.178   0.522  0.00  0.00    +0.203 A 
ATOM      6  C   UNL     1      -3.781   0.924   0.067  0.00  0.00    +0.167 A 
ATOM      7  N   UNL     1      -4.740   0.303  -0.577  0.00  0.00    -0.227 NA
ATOM      8  C   UNL     1      -4.673  -1.029  -0.843  0.00  0.00    +0.090 A 
ATOM      9  C   UNL     1      -5.718  -1.653  -1.534  0.00  0.00    +0.030 A 
ATOM     10  C   UNL     1      -5.655  -3.002  -1.804  0.00  0.00    +0.002 A 
ATOM     11  C   UNL     1      -4.561  -3.749  -1.396  0.00  0.00    +0.002 A 
ATOM     12  C   UNL     1      -3.522  -3.148  -0.713  0.00  0.00    +0.028 A 
ATOM     13  N   UNL     1      -3.883   2.278   0.319  0.00  0.00    -0.312 N 
ATOM     14  C   UNL     1      -2.887   3.096   1.034  0.00  0.00    +0.106 C 
ATOM     15  C   UNL     1      -3.124   4.541   0.524  0.00  0.00    +0.020 C 
ATOM     16  C   UNL     1      -4.669   4.573   0.392  0.00  0.00    +0.020 C 
ATOM     17  C   UNL     1      -5.005   3.141  -0.077  0.00  0.00    +0.106 C 
ATOM     18  C   UNL     1      -3.568  -1.791  -0.433  0.00  0.00    +0.078 A 
ATOM     19  N   UNL     1      -1.521   0.533   1.169  0.00  0.00    -0.145 NA
ENDROOT
BRANCH   1  20
ATOM     20  C   UNL     1       0.581  -0.658   2.006  0.00  0.00    +0.244 C 
BRANCH  20  23
ATOM     21  N   UNL     1       2.964  -0.398   1.397  0.00  0.00    -0.281 N 
ATOM     22  H   UNL     1       3.194  -0.647   2.306  0.00  0.00    +0.155 HD
ATOM     23  C   UNL     1       1.675  -0.398   1.003  0.00  0.00    +0.239 C 
ATOM     24  O   UNL     1       1.396  -0.189  -0.159  0.00  0.00    -0.273 OA
BRANCH  21  28
ATOM     25  C   UNL     1       5.969   0.679  -1.295  0.00  0.00    +0.124 A 
ATOM     26  C   UNL     1       6.268  -0.145  -0.221  0.00  0.00    +0.093 A 
ATOM     27  C   UNL     1       5.274  -0.500   0.677  0.00  0.00    +0.145 A 
ATOM     28  C   UNL     1       3.974  -0.036   0.492  0.00  0.00    +0.076 A 
ATOM     29  C   UNL     1       3.679   0.784  -0.587  0.00  0.00    +0.030 A 
ATOM     30  C   UNL     1       4.673   1.140  -1.477  0.00  0.00    +0.047 A 
BRANCH  25  32
ATOM     31  C   UNL     1       6.333   1.867  -3.157  0.00  0.00    +0.277 C 
ATOM     32  O   UNL     1       6.945   1.031  -2.173  0.00  0.00    -0.495 OA
ENDBRANCH  25  32
BRANCH  27  33
ATOM     33  O   UNL     1       5.566  -1.304   1.734  0.00  0.00    -0.493 OA
ATOM     34  C   UNL     1       6.960  -1.607   1.649  0.00  0.00    +0.277 C 
ENDBRANCH  27  33
ENDBRANCH  21  28
ENDBRANCH  20  23
ENDBRANCH   1  20
TORSDOF 5
