REMARK  Name = m313
REMARK  5 active torsions:
REMARK  status: ('A' for Active; 'I' for Inactive)
REMARK    1  A    between atoms: C_1  and  C_2
REMARK    2  A    between atoms: C_5  and  S_6
REMARK    3  A    between atoms: S_6  and  N_9
REMARK    4  A    between atoms: C_13  and  C_14
REMARK    5  A    between atoms: C_15  and  C_16
REMARK                            x       y       z     vdW  Elec       q    Type
REMARK                         _______ _______ _______ _____ _____    ______ ____
ROOT
ATOM      1  N   UNL     1       0.811  -1.802   0.301  0.00  0.00    -0.172 NA
ATOM      2  C   UNL     1      -0.460  -1.151   0.664  0.00  0.00    +0.146 C 
ATOM      3  C   UNL     1      -1.009  -0.453  -0.590  0.00  0.00    +0.166 C 
ATOM      4  O   UNL     1      -1.139  -1.403  -1.646  0.00  0.00    -0.369 OA
ATOM      5  C   UNL     1       0.174  -1.789  -2.048  0.00  0.00    +0.178 C 
ATOM      6  C   UNL     1       0.834  -2.607  -0.932  0.00  0.00    +0.137 C 
ENDROOT
BRANCH   3   7
ATOM      7  C   UNL     1      -2.358   0.143  -0.281  0.00  0.00    +0.011 A 
ATOM      8  C   UNL     1      -2.490   1.530  -0.096  0.00  0.00    +0.014 A 
ATOM      9  C   UNL     1      -3.801   1.987   0.186  0.00  0.00    +0.109 A 
ATOM     10  N   UNL     1      -4.082   3.255   0.379  0.00  0.00    -0.248 NA
ATOM     11  C   UNL     1      -3.146   4.182   0.314  0.00  0.00    +0.112 A 
ATOM     12  C   UNL     1      -1.831   3.834   0.038  0.00  0.00    +0.020 A 
ATOM     13  S   UNL     1      -4.761   0.492   0.190  0.00  0.00    -0.064 S 
ATOM     14  C   UNL     1      -1.486   2.531  -0.171  0.00  0.00    +0.012 A 
ATOM     15  C   UNL     1      -3.449  -0.661  -0.175  0.00  0.00    +0.082 A 
BRANCH  15  16
ATOM     16  C   UNL     1      -3.528  -2.121  -0.325  0.00  0.00    +0.249 C 
ATOM     17  O   UNL     1      -2.526  -2.762  -0.577  0.00  0.00    -0.270 OA
ATOM     18  N   UNL     1      -4.712  -2.749  -0.182  0.00  0.00    -0.325 N 
ATOM     19  H   UNL     1      -4.764  -3.713  -0.281  0.00  0.00    +0.145 HD
ATOM     20  H   UNL     1      -5.511  -2.238   0.019  0.00  0.00    +0.145 HD
ENDBRANCH  15  16
ENDBRANCH   3   7
BRANCH   1  21
ATOM     21  S   UNL     1       2.161  -1.639   1.247  0.00  0.00    +0.061 S 
ATOM     22  O   UNL     1       1.686  -1.294   2.541  0.00  0.00    -0.153 OA
ATOM     23  O   UNL     1       2.982  -2.759   0.944  0.00  0.00    -0.153 OA
BRANCH  21  29
ATOM     24  C   UNL     1       5.180   3.198  -0.730  0.00  0.00    +0.047 C 
ATOM     25  C   UNL     1       4.426   1.990  -0.236  0.00  0.00    -0.015 A 
ATOM     26  C   UNL     1       4.692   0.742  -0.773  0.00  0.00    +0.128 A 
ATOM     27  F   UNL     1       5.630   0.605  -1.735  0.00  0.00    -0.205 F 
ATOM     28  C   UNL     1       4.003  -0.369  -0.315  0.00  0.00    +0.067 A 
ATOM     29  C   UNL     1       3.043  -0.228   0.669  0.00  0.00    +0.108 A 
ATOM     30  C   UNL     1       2.774   1.020   1.200  0.00  0.00    +0.029 A 
ATOM     31  C   UNL     1       3.466   2.128   0.748  0.00  0.00    +0.008 A 
ENDBRANCH  21  29
ENDBRANCH   1  21
TORSDOF 4
