REMARK  Name = m314
REMARK  11 active torsions:
REMARK  status: ('A' for Active; 'I' for Inactive)
REMARK    1  A    between atoms: C_1  and  O_2
REMARK    2  A    between atoms: O_2  and  C_3
REMARK    3  A    between atoms: C_6  and  N_7
REMARK    4  A    between atoms: C_8  and  C_10
REMARK    5  A    between atoms: C_15  and  C_16
REMARK    6  A    between atoms: C_17  and  C_18
REMARK    7  A    between atoms: C_18  and  C_19
REMARK    8  A    between atoms: C_26  and  O_27
REMARK    9  A    between atoms: C_29  and  C_30
REMARK   10  A    between atoms: C_31  and  O_32
REMARK   11  A    between atoms: O_32  and  C_33
REMARK                            x       y       z     vdW  Elec       q    Type
REMARK                         _______ _______ _______ _____ _____    ______ ____
ROOT
ATOM      1  C   UNL     1       1.867   1.450  -0.470  0.00  0.00    +0.099 A 
ATOM      2  C   UNL     1       1.240   2.559  -1.020  0.00  0.00    +0.060 A 
ATOM      3  C   UNL     1       2.003   3.543  -1.869  0.00  0.00    +0.067 C 
ATOM      4  N   UNL     1      -0.037   2.716  -0.786  0.00  0.00    -0.226 NA
ATOM      5  C   UNL     1      -0.716   1.858  -0.043  0.00  0.00    +0.198 A 
ATOM      6  N   UNL     1      -2.062   1.883   0.303  0.00  0.00    -0.175 N 
ATOM      7  C   UNL     1      -2.710   0.964   1.071  0.00  0.00    +0.221 A 
ATOM      8  C   UNL     1      -4.007   1.358   1.170  0.00  0.00    +0.041 A 
ATOM      9  C   UNL     1      -4.155   2.539   0.436  0.00  0.00    +0.068 A 
ATOM     10  C   UNL     1      -5.434   3.319   0.270  0.00  0.00    +0.068 C 
ATOM     11  N   UNL     1      -2.995   2.854  -0.082  0.00  0.00    -0.166 NA
ATOM     12  S   UNL     1       0.496   0.694   0.393  0.00  0.00    -0.043 S 
ENDROOT
BRANCH   1  15
ATOM     13  N   UNL     1       3.668  -0.102   0.061  0.00  0.00    -0.278 N 
ATOM     14  H   UNL     1       3.018  -0.671   0.503  0.00  0.00    +0.155 HD
ATOM     15  C   UNL     1       3.263   1.022  -0.565  0.00  0.00    +0.257 C 
ATOM     16  O   UNL     1       4.059   1.680  -1.209  0.00  0.00    -0.269 OA
BRANCH  13  20
ATOM     17  C   UNL     1       7.713  -1.130   0.096  0.00  0.00    +0.124 A 
ATOM     18  C   UNL     1       6.749  -2.117   0.238  0.00  0.00    +0.093 A 
ATOM     19  C   UNL     1       5.406  -1.778   0.233  0.00  0.00    +0.145 A 
ATOM     20  C   UNL     1       5.027  -0.447   0.073  0.00  0.00    +0.076 A 
ATOM     21  C   UNL     1       5.994   0.535  -0.075  0.00  0.00    +0.030 A 
ATOM     22  C   UNL     1       7.333   0.195  -0.063  0.00  0.00    +0.047 A 
BRANCH  17  24
ATOM     23  C   UNL     1       9.765  -0.247  -0.066  0.00  0.00    +0.277 C 
ATOM     24  O   UNL     1       9.032  -1.462   0.106  0.00  0.00    -0.495 OA
ENDBRANCH  17  24
BRANCH  19  25
ATOM     25  O   UNL     1       4.460  -2.743   0.378  0.00  0.00    -0.493 OA
ATOM     26  C   UNL     1       5.154  -3.985   0.519  0.00  0.00    +0.277 C 
ENDBRANCH  19  25
ENDBRANCH  13  20
ENDBRANCH   1  15
BRANCH   7  27
ATOM     27  O   UNL     1      -2.159  -0.137   1.642  0.00  0.00    -0.492 OA
ATOM     28  H   UNL     1      -2.253  -0.859   1.005  0.00  0.00    +0.294 HD
ENDBRANCH   7  27
BRANCH   8  29
ATOM     29  C   UNL     1      -5.095   0.644   1.930  0.00  0.00    +0.077 C 
BRANCH  29  30
ATOM     30  C   UNL     1      -5.769  -0.354   1.023  0.00  0.00    -0.043 A 
ATOM     31  C   UNL     1      -6.867   0.025   0.274  0.00  0.00    +0.005 A 
ATOM     32  C   UNL     1      -7.483  -0.887  -0.561  0.00  0.00    +0.020 A 
ATOM     33  C   UNL     1      -7.006  -2.184  -0.640  0.00  0.00    +0.041 A 
ATOM     34 CL   UNL     1      -7.783  -3.333  -1.684  0.00  0.00    -0.084 Cl
ATOM     35  C   UNL     1      -5.910  -2.564   0.114  0.00  0.00    +0.020 A 
ATOM     36  C   UNL     1      -5.293  -1.649   0.945  0.00  0.00    +0.005 A 
ENDBRANCH  29  30
ENDBRANCH   8  29
TORSDOF 7
