REMARK  Name = m315
REMARK  11 active torsions:
REMARK  status: ('A' for Active; 'I' for Inactive)
REMARK    1  A    between atoms: C_1  and  O_2
REMARK    2  A    between atoms: O_2  and  C_3
REMARK    3  A    between atoms: C_3  and  C_5
REMARK    4  A    between atoms: C_6  and  C_7
REMARK    5  A    between atoms: N_22  and  C_23
REMARK    6  A    between atoms: C_23  and  C_24
REMARK    7  A    between atoms: N_26  and  C_27
REMARK    8  A    between atoms: C_30  and  O_31
REMARK    9  A    between atoms: O_31  and  C_32
REMARK   10  A    between atoms: C_34  and  O_35
REMARK   11  A    between atoms: O_35  and  C_36
REMARK                            x       y       z     vdW  Elec       q    Type
REMARK                         _______ _______ _______ _____ _____    ______ ____
ROOT
ATOM      1  C   UNL     1      -1.755   0.002   0.891  0.00  0.00    +0.144 C 
ATOM      2  N   UNL     1      -0.992  -1.156   1.072  0.00  0.00    -0.187 N 
ATOM      3  S   UNL     1      -1.606  -2.585   0.470  0.00  0.00    +0.076 S 
ATOM      4  O   UNL     1      -0.483  -3.398   0.161  0.00  0.00    -0.150 OA
ATOM      5  O   UNL     1      -2.683  -2.948   1.324  0.00  0.00    -0.150 OA
ATOM      6  C   UNL     1      -2.334  -2.143  -1.078  0.00  0.00    +0.116 A 
ATOM      7  C   UNL     1      -2.749  -0.819  -1.259  0.00  0.00    +0.011 A 
ATOM      8  C   UNL     1      -3.330  -0.452  -2.476  0.00  0.00    +0.010 A 
ATOM      9  C   UNL     1      -3.485  -1.390  -3.474  0.00  0.00    +0.001 A 
ATOM     10  C   UNL     1      -3.069  -2.696  -3.281  0.00  0.00    +0.002 A 
ATOM     11  C   UNL     1      -2.492  -3.071  -2.078  0.00  0.00    +0.029 A 
ATOM     12  C   UNL     1      -2.577   0.174  -0.187  0.00  0.00    +0.021 C 
ENDROOT
BRANCH  12  13
ATOM     13  C   UNL     1      -3.339   1.437  -0.283  0.00  0.00    -0.015 A 
ATOM     14  C   UNL     1      -4.323   1.735   0.663  0.00  0.00    +0.008 A 
ATOM     15  C   UNL     1      -5.027   2.918   0.570  0.00  0.00    +0.001 A 
ATOM     16  C   UNL     1      -4.769   3.802  -0.462  0.00  0.00    +0.000 A 
ATOM     17  C   UNL     1      -3.800   3.509  -1.406  0.00  0.00    +0.001 A 
ATOM     18  C   UNL     1      -3.084   2.333  -1.322  0.00  0.00    +0.008 A 
ENDBRANCH  12  13
BRANCH   1  19
ATOM     19  C   UNL     1      -1.666   1.071   1.890  0.00  0.00    +0.355 C 
ATOM     20  O   UNL     1      -1.754   2.234   1.545  0.00  0.00    -0.243 OA
BRANCH  19  22
ATOM     21  C   UNL     1      -1.442   2.002   3.904  0.00  0.00    +0.280 C 
ATOM     22  O   UNL     1      -1.488   0.765   3.191  0.00  0.00    -0.464 OA
ENDBRANCH  19  22
ENDBRANCH   1  19
BRANCH   2  23
ATOM     23  C   UNL     1       0.296  -1.118   1.770  0.00  0.00    +0.227 C 
BRANCH  23  24
ATOM     24  C   UNL     1       1.366  -0.641   0.823  0.00  0.00    +0.236 C 
ATOM     25  N   UNL     1       2.640  -0.526   1.249  0.00  0.00    -0.281 N 
ATOM     26  H   UNL     1       2.885  -0.833   2.136  0.00  0.00    +0.155 HD
ATOM     27  O   UNL     1       1.082  -0.360  -0.322  0.00  0.00    -0.274 OA
BRANCH  25  28
ATOM     28  C   UNL     1       3.612   0.038   0.409  0.00  0.00    +0.076 A 
ATOM     29  C   UNL     1       4.957  -0.279   0.588  0.00  0.00    +0.145 A 
ATOM     30  C   UNL     1       5.914   0.275  -0.247  0.00  0.00    +0.093 A 
ATOM     31  C   UNL     1       5.532   1.152  -1.251  0.00  0.00    +0.124 A 
ATOM     32  C   UNL     1       4.193   1.471  -1.425  0.00  0.00    +0.047 A 
ATOM     33  C   UNL     1       3.236   0.916  -0.597  0.00  0.00    +0.030 A 
BRANCH  29  34
ATOM     34  O   UNL     1       5.328  -1.139   1.573  0.00  0.00    -0.493 OA
ATOM     35  C   UNL     1       6.749  -1.269   1.494  0.00  0.00    +0.277 C 
ENDBRANCH  29  34
BRANCH  31  36
ATOM     36  O   UNL     1       6.472   1.700  -2.067  0.00  0.00    -0.495 OA
ATOM     37  C   UNL     1       5.779   2.548  -2.985  0.00  0.00    +0.277 C 
ENDBRANCH  31  36
ENDBRANCH  25  28
ENDBRANCH  23  24
ENDBRANCH   2  23
TORSDOF 8
