REMARK  Name = m316
REMARK  12 active torsions:
REMARK  status: ('A' for Active; 'I' for Inactive)
REMARK    1  A    between atoms: C_1  and  O_2
REMARK    2  A    between atoms: O_2  and  C_3
REMARK    3  A    between atoms: C_5  and  O_6
REMARK    4  A    between atoms: O_6  and  C_7
REMARK    5  A    between atoms: C_8  and  N_9
REMARK    6  A    between atoms: C_10  and  C_12
REMARK    7  A    between atoms: C_12  and  N_13
REMARK    8  A    between atoms: N_16  and  C_17
REMARK    9  A    between atoms: C_17  and  C_18
REMARK   10  A    between atoms: C_17  and  C_19
REMARK   11  A    between atoms: C_23  and  C_24
REMARK   12  A    between atoms: C_27  and  C_28
REMARK                            x       y       z     vdW  Elec       q    Type
REMARK                         _______ _______ _______ _____ _____    ______ ____
ROOT
ATOM      1  N   UNL     1      -1.369   1.818  -0.849  0.00  0.00    -0.283 N 
ATOM      2  C   UNL     1      -2.376   0.949  -0.432  0.00  0.00    +0.071 A 
ATOM      3  C   UNL     1      -3.222   1.684   0.404  0.00  0.00    +0.070 A 
ATOM      4  C   UNL     1      -4.328   1.075   0.982  0.00  0.00    +0.029 A 
ATOM      5  C   UNL     1      -4.590  -0.255   0.736  0.00  0.00    +0.014 A 
ATOM      6  C   UNL     1      -3.746  -0.994  -0.093  0.00  0.00    +0.025 A 
ATOM      7  N   UNL     1      -2.708   2.976   0.461  0.00  0.00    -0.289 N 
ATOM      8  C   UNL     1      -2.635  -0.388  -0.675  0.00  0.00    +0.039 A 
ATOM      9  C   UNL     1      -1.598   3.026  -0.300  0.00  0.00    +0.331 A 
ATOM     10  O   UNL     1      -0.907   4.013  -0.466  0.00  0.00    -0.246 OA
ENDROOT
BRANCH   6  11
ATOM     11  C   UNL     1      -4.031  -2.426  -0.355  0.00  0.00    +0.202 A 
ATOM     12  N   UNL     1      -5.064  -3.143   0.142  0.00  0.00    -0.192 NA
ATOM     13  C   UNL     1      -4.926  -4.348  -0.350  0.00  0.00    +0.225 A 
ATOM     14  C   UNL     1      -5.830  -5.527  -0.099  0.00  0.00    +0.112 C 
ATOM     15  O   UNL     1      -3.829  -4.338  -1.114  0.00  0.00    -0.338 OA
ATOM     16  N   UNL     1      -3.328  -3.233  -1.107  0.00  0.00    -0.056 NA
ENDBRANCH   6  11
BRANCH   7  17
ATOM     17  C   UNL     1      -3.278   4.092   1.219  0.00  0.00    +0.086 C 
ATOM     18  C   UNL     1      -3.638   5.229   0.260  0.00  0.00    +0.031 C 
ATOM     19  C   UNL     1      -2.253   4.591   2.240  0.00  0.00    +0.031 C 
ENDBRANCH   7  17
BRANCH   1  20
ATOM     20  C   UNL     1      -0.256   1.477  -1.738  0.00  0.00    +0.222 C 
BRANCH  20  23
ATOM     21  N   UNL     1       2.057   0.625  -1.527  0.00  0.00    -0.281 N 
ATOM     22  H   UNL     1       2.158   0.746  -2.484  0.00  0.00    +0.155 HD
ATOM     23  C   UNL     1       0.913   0.997  -0.917  0.00  0.00    +0.237 C 
ATOM     24  O   UNL     1       0.825   0.945   0.291  0.00  0.00    -0.274 OA
BRANCH  21  29
ATOM     25  C   UNL     1       5.165  -1.045   0.706  0.00  0.00    +0.142 A 
ATOM     26  C   UNL     1       3.856  -1.134   1.160  0.00  0.00    +0.084 A 
ATOM     27 CL   UNL     1       3.512  -1.935   2.661  0.00  0.00    -0.080 Cl
ATOM     28  C   UNL     1       2.827  -0.576   0.423  0.00  0.00    +0.050 A 
ATOM     29  C   UNL     1       3.101   0.064  -0.776  0.00  0.00    +0.077 A 
ATOM     30  C   UNL     1       4.413   0.149  -1.235  0.00  0.00    +0.145 A 
ATOM     31  C   UNL     1       5.442  -0.406  -0.493  0.00  0.00    +0.094 A 
BRANCH  25  33
ATOM     32  C   UNL     1       7.384  -1.345   0.713  0.00  0.00    +0.277 C 
ATOM     33  O   UNL     1       6.175  -1.591   1.435  0.00  0.00    -0.494 OA
ENDBRANCH  25  33
BRANCH  30  34
ATOM     34  O   UNL     1       4.684   0.776  -2.411  0.00  0.00    -0.493 OA
ATOM     35  C   UNL     1       6.097   0.698  -2.606  0.00  0.00    +0.277 C 
ENDBRANCH  30  34
ENDBRANCH  21  29
ENDBRANCH  20  23
ENDBRANCH   1  20
TORSDOF 7
