REMARK  Name = m317
REMARK  6 active torsions:
REMARK  status: ('A' for Active; 'I' for Inactive)
REMARK    1  A    between atoms: C_1  and  C_2
REMARK    2  A    between atoms: C_7  and  C_8
REMARK    3  A    between atoms: C_11  and  C_12
REMARK    4  A    between atoms: C_12  and  C_13
REMARK    5  A    between atoms: C_13  and  N_14
REMARK    6  A    between atoms: C_16  and  C_17
REMARK                            x       y       z     vdW  Elec       q    Type
REMARK                         _______ _______ _______ _____ _____    ______ ____
ROOT
ATOM      1  N   UNL     1      -0.897  -1.531   0.387  0.00  0.00    -0.228 N 
ATOM      2  C   UNL     1      -0.925  -2.877   0.379  0.00  0.00    +0.267 A 
ATOM      3  O   UNL     1       0.104  -3.514   0.536  0.00  0.00    -0.266 OA
ATOM      4  C   UNL     1      -2.156  -3.546   0.199  0.00  0.00    +0.074 A 
ATOM      5  C   UNL     1      -3.276  -2.787   0.029  0.00  0.00    +0.035 A 
ATOM      6  C   UNL     1      -3.140  -1.379   0.048  0.00  0.00    +0.092 A 
ATOM      7  N   UNL     1      -1.961  -0.831   0.225  0.00  0.00    -0.168 NA
ENDROOT
BRANCH   6   8
ATOM      8  C   UNL     1      -4.335  -0.519  -0.135  0.00  0.00    +0.006 A 
ATOM      9  C   UNL     1      -4.483   0.640   0.625  0.00  0.00    +0.059 A 
ATOM     10  C   UNL     1      -5.596   1.442   0.450  0.00  0.00    +0.167 A 
ATOM     11  O   UNL     1      -5.973   2.608   1.051  0.00  0.00    -0.453 OA
ATOM     12  C   UNL     1      -7.379   2.745   0.777  0.00  0.00    +0.466 C 
ATOM     13  O   UNL     1      -7.558   2.028  -0.459  0.00  0.00    -0.453 OA
ATOM     14  C   UNL     1      -6.572   1.085  -0.480  0.00  0.00    +0.166 A 
ATOM     15  C   UNL     1      -6.425  -0.071  -1.231  0.00  0.00    +0.050 A 
ATOM     16  C   UNL     1      -5.314  -0.872  -1.062  0.00  0.00    +0.014 A 
ENDBRANCH   6   8
BRANCH   1  17
ATOM     17  C   UNL     1       0.384  -0.846   0.579  0.00  0.00    +0.157 C 
BRANCH  17  18
ATOM     18  C   UNL     1       1.045  -0.610  -0.780  0.00  0.00    +0.122 C 
BRANCH  18  21
ATOM     19  C   UNL     1       4.412   0.543  -0.273  0.00  0.00    +0.202 A 
ATOM     20  N   UNL     1       3.530  -0.473  -0.410  0.00  0.00    -0.191 NA
ATOM     21  C   UNL     1       2.363   0.095  -0.582  0.00  0.00    +0.229 A 
ATOM     22  O   UNL     1       2.560   1.417  -0.555  0.00  0.00    -0.338 OA
ATOM     23  N   UNL     1       3.735   1.658  -0.378  0.00  0.00    -0.056 NA
BRANCH  19  26
ATOM     24  C   UNL     1       6.038   2.925  -0.048  0.00  0.00    +0.044 C 
ATOM     25  C   UNL     1       6.665   1.559   0.054  0.00  0.00    -0.040 A 
ATOM     26  C   UNL     1       5.874   0.418  -0.052  0.00  0.00    +0.025 A 
ATOM     27  C   UNL     1       6.462  -0.842   0.039  0.00  0.00    +0.012 A 
ATOM     28  C   UNL     1       7.822  -0.953   0.244  0.00  0.00    +0.001 A 
ATOM     29  C   UNL     1       8.602   0.184   0.355  0.00  0.00    +0.000 A 
ATOM     30  C   UNL     1       8.025   1.437   0.260  0.00  0.00    +0.004 A 
ENDBRANCH  19  26
ENDBRANCH  18  21
ENDBRANCH  17  18
ENDBRANCH   1  17
TORSDOF 5
