REMARK  Name = m318
REMARK  7 active torsions:
REMARK  status: ('A' for Active; 'I' for Inactive)
REMARK    1  A    between atoms: C_1  and  N_2
REMARK    2  A    between atoms: C_3  and  C_5
REMARK    3  A    between atoms: C_13  and  C_14
REMARK    4  A    between atoms: N_17  and  S_18
REMARK    5  A    between atoms: S_18  and  C_21
REMARK    6  A    between atoms: C_22  and  C_23
REMARK    7  A    between atoms: C_27  and  C_28
REMARK                            x       y       z     vdW  Elec       q    Type
REMARK                         _______ _______ _______ _____ _____    ______ ____
ROOT
ATOM      1  C   UNL     1      -1.056  -0.819  -0.584  0.00  0.00    +0.038 C 
ATOM      2  C   UNL     1       0.159  -0.559   0.342  0.00  0.00    +0.117 C 
ATOM      3  N   UNL     1       1.324  -1.044  -0.421  0.00  0.00    -0.176 NA
ATOM      4  C   UNL     1       0.996  -1.013  -1.853  0.00  0.00    +0.110 C 
ATOM      5  C   UNL     1      -0.456  -0.507  -1.980  0.00  0.00    +0.026 C 
ENDROOT
BRANCH   1   7
ATOM      6  C   UNL     1      -3.418  -0.379   0.046  0.00  0.00    +0.080 A 
ATOM      7  C   UNL     1      -2.191   0.118  -0.261  0.00  0.00    -0.015 A 
ATOM      8  C   UNL     1      -1.984   1.508  -0.284  0.00  0.00    +0.012 A 
ATOM      9  C   UNL     1      -3.114   2.299   0.038  0.00  0.00    +0.109 A 
ATOM     10  N   UNL     1      -3.075   3.612   0.063  0.00  0.00    -0.248 NA
ATOM     11  C   UNL     1      -1.965   4.269  -0.214  0.00  0.00    +0.112 A 
ATOM     12  C   UNL     1      -0.805   3.583  -0.542  0.00  0.00    +0.020 A 
ATOM     13  C   UNL     1      -0.792   2.219  -0.583  0.00  0.00    +0.012 A 
ATOM     14  S   UNL     1      -4.382   1.093   0.342  0.00  0.00    -0.064 S 
BRANCH   6  18
ATOM     15  C   UNL     1      -5.508  -3.489   0.633  0.00  0.00    +0.128 C 
ATOM     16  N   UNL     1      -5.083  -2.089   0.558  0.00  0.00    -0.314 N 
ATOM     17  H   UNL     1      -5.692  -1.382   0.822  0.00  0.00    +0.149 HD
ATOM     18  C   UNL     1      -3.845  -1.783   0.122  0.00  0.00    +0.251 C 
ATOM     19  O   UNL     1      -3.080  -2.670  -0.209  0.00  0.00    -0.270 OA
ENDBRANCH   6  18
ENDBRANCH   1   7
BRANCH   3  20
ATOM     20  S   UNL     1       2.765  -1.539   0.229  0.00  0.00    +0.064 S 
ATOM     21  O   UNL     1       3.358  -2.385  -0.746  0.00  0.00    -0.153 OA
ATOM     22  O   UNL     1       2.477  -1.907   1.571  0.00  0.00    -0.153 OA
BRANCH  20  23
ATOM     23  C   UNL     1       3.809  -0.124   0.335  0.00  0.00    +0.148 A 
ATOM     24  C   UNL     1       4.667   0.306  -0.619  0.00  0.00    +0.060 A 
ATOM     25  C   UNL     1       4.896  -0.337  -1.963  0.00  0.00    +0.067 C 
ATOM     26  N   UNL     1       5.275   1.418  -0.156  0.00  0.00    -0.280 N 
ATOM     27  H   UNL     1       5.940   1.944  -0.627  0.00  0.00    +0.189 HD
ATOM     28  N   UNL     1       4.781   1.675   1.130  0.00  0.00    -0.177 NA
ATOM     29  C   UNL     1       3.903   0.751   1.423  0.00  0.00    +0.086 A 
ATOM     30  C   UNL     1       3.126   0.646   2.710  0.00  0.00    +0.069 C 
ENDBRANCH  20  23
ENDBRANCH   3  20
TORSDOF 4
