REMARK  Name = m319
REMARK  9 active torsions:
REMARK  status: ('A' for Active; 'I' for Inactive)
REMARK    1  A    between atoms: C_1  and  O_2
REMARK    2  A    between atoms: O_2  and  C_3
REMARK    3  A    between atoms: C_6  and  S_7
REMARK    4  A    between atoms: S_7  and  N_10
REMARK    5  A    between atoms: C_17  and  N_18
REMARK    6  A    between atoms: C_19  and  C_21
REMARK    7  A    between atoms: C_23  and  C_24
REMARK    8  A    between atoms: C_28  and  C_29
REMARK    9  A    between atoms: N_31  and  C_32
REMARK                            x       y       z     vdW  Elec       q    Type
REMARK                         _______ _______ _______ _____ _____    ______ ____
ROOT
ATOM      1  C   UNL     1      -0.876   3.158   0.159  0.00  0.00    +0.141 A 
ATOM      2  C   UNL     1      -0.309   1.888   0.240  0.00  0.00    +0.078 A 
ATOM      3  C   UNL     1      -1.110   0.792   0.526  0.00  0.00    +0.055 A 
ATOM      4  C   UNL     1      -2.468   0.960   0.720  0.00  0.00    +0.107 A 
ATOM      5  C   UNL     1      -3.031   2.220   0.634  0.00  0.00    +0.032 A 
ATOM      6  C   UNL     1      -2.239   3.318   0.355  0.00  0.00    +0.049 A 
ENDROOT
BRANCH   2   7
ATOM      7  N   UNL     1       1.067   1.720   0.042  0.00  0.00    -0.278 N 
ATOM      8  H   UNL     1       1.665   2.478   0.127  0.00  0.00    +0.155 HD
ATOM      9  C   UNL     1       1.560   0.503  -0.265  0.00  0.00    +0.249 C 
ATOM     10  O   UNL     1       0.802  -0.427  -0.463  0.00  0.00    -0.270 OA
BRANCH   9  11
ATOM     11  C   UNL     1       3.021   0.301  -0.361  0.00  0.00    +0.051 A 
ATOM     12  C   UNL     1       3.625  -0.887   0.106  0.00  0.00    +0.054 A 
ATOM     13  C   UNL     1       3.131  -2.067   0.703  0.00  0.00    +0.070 A 
ATOM     14  N   UNL     1       4.133  -2.868   0.931  0.00  0.00    -0.174 NA
ATOM     15  N   UNL     1       5.324  -2.267   0.507  0.00  0.00    -0.249 N 
ATOM     16  C   UNL     1       6.663  -2.856   0.596  0.00  0.00    +0.174 C 
ATOM     17  C   UNL     1       1.686  -2.353   1.023  0.00  0.00    +0.068 C 
ATOM     18  C   UNL     1       5.021  -1.035  -0.012  0.00  0.00    +0.159 A 
ATOM     19  N   UNL     1       5.752  -0.066  -0.545  0.00  0.00    -0.233 NA
ATOM     20  C   UNL     1       5.214   1.051  -0.983  0.00  0.00    +0.041 A 
ATOM     21  C   UNL     1       6.104   2.111  -1.578  0.00  0.00    +0.065 C 
ATOM     22  C   UNL     1       3.848   1.278  -0.911  0.00  0.00    +0.037 A 
ENDBRANCH   9  11
ENDBRANCH   2   7
BRANCH   4  23
ATOM     23  S   UNL     1      -3.485  -0.434   1.077  0.00  0.00    +0.061 S 
ATOM     24  O   UNL     1      -4.637   0.085   1.727  0.00  0.00    -0.153 OA
ATOM     25  O   UNL     1      -2.613  -1.420   1.612  0.00  0.00    -0.153 OA
BRANCH  23  26
ATOM     26  N   UNL     1      -4.018  -1.041  -0.368  0.00  0.00    -0.177 NA
ATOM     27  C   UNL     1      -5.275  -0.566  -0.962  0.00  0.00    +0.109 C 
ATOM     28  C   UNL     1      -6.168  -1.769  -1.263  0.00  0.00    +0.017 C 
ATOM     29  C   UNL     1      -5.400  -2.767  -2.132  0.00  0.00    +0.003 C 
ATOM     30  C   UNL     1      -4.164  -3.259  -1.376  0.00  0.00    +0.017 C 
ATOM     31  C   UNL     1      -3.245  -2.069  -1.079  0.00  0.00    +0.109 C 
ENDBRANCH  23  26
ENDBRANCH   4  23
BRANCH   1  33
ATOM     32  C   UNL     1      -0.958   5.376  -0.136  0.00  0.00    +0.277 C 
ATOM     33  O   UNL     1      -0.096   4.237  -0.116  0.00  0.00    -0.493 OA
ENDBRANCH   1  33
TORSDOF 5
