REMARK  Name = m320
REMARK  11 active torsions:
REMARK  status: ('A' for Active; 'I' for Inactive)
REMARK    1  A    between atoms: C_1  and  C_2
REMARK    2  A    between atoms: C_2  and  O_3
REMARK    3  A    between atoms: O_3  and  C_4
REMARK    4  A    between atoms: C_4  and  C_6
REMARK    5  A    between atoms: C_7  and  S_8
REMARK    6  A    between atoms: S_8  and  N_11
REMARK    7  A    between atoms: C_14  and  C_15
REMARK    8  A    between atoms: C_20  and  C_21
REMARK    9  A    between atoms: C_27  and  C_28
REMARK   10  A    between atoms: N_29  and  C_30
REMARK   11  A    between atoms: C_31  and  C_32
REMARK                            x       y       z     vdW  Elec       q    Type
REMARK                         _______ _______ _______ _____ _____    ______ ____
ROOT
ATOM      1  N   UNL     1      -0.767  -0.811  -0.213  0.00  0.00    -0.176 NA
ATOM      2  C   UNL     1      -0.132   0.506  -0.067  0.00  0.00    +0.110 C 
ATOM      3  C   UNL     1       1.358   0.377  -0.377  0.00  0.00    +0.030 C 
ATOM      4  C   UNL     1       1.968  -0.716   0.504  0.00  0.00    +0.078 C 
ATOM      5  C   UNL     1       1.292  -2.055   0.200  0.00  0.00    +0.030 C 
ATOM      6  C   UNL     1      -0.203  -1.952   0.521  0.00  0.00    +0.110 C 
ENDROOT
BRANCH   4   7
ATOM      7  C   UNL     1       3.444  -0.823   0.221  0.00  0.00    +0.221 C 
ATOM      8  N   UNL     1       4.247   0.241   0.418  0.00  0.00    -0.270 N 
ATOM      9  H   UNL     1       3.865   1.097   0.669  0.00  0.00    +0.156 HD
ATOM     10  C   UNL     1       5.626   0.113   0.262  0.00  0.00    +0.125 A 
ATOM     11  N   UNL     1       6.133  -1.029  -0.175  0.00  0.00    -0.240 NA
ATOM     12  C   UNL     1       7.431  -1.191  -0.343  0.00  0.00    +0.113 A 
ATOM     13  C   UNL     1       8.315  -0.170  -0.055  0.00  0.00    +0.023 A 
ATOM     14  C   UNL     1       7.824   1.042   0.411  0.00  0.00    -0.046 A 
ATOM     15  C   UNL     1       8.760   2.178   0.736  0.00  0.00    +0.044 C 
ATOM     16  C   UNL     1       6.457   1.183   0.571  0.00  0.00    +0.047 A 
ATOM     17  O   UNL     1       3.910  -1.867  -0.184  0.00  0.00    -0.275 OA
ENDBRANCH   4   7
BRANCH   1  18
ATOM     18  S   UNL     1      -2.089  -1.007  -1.190  0.00  0.00    +0.063 S 
ATOM     19  O   UNL     1      -2.048   0.071  -2.116  0.00  0.00    -0.153 OA
ATOM     20  O   UNL     1      -2.115  -2.385  -1.534  0.00  0.00    -0.153 OA
BRANCH  18  28
ATOM     21  C   UNL     1      -4.205   0.546   0.022  0.00  0.00    +0.106 A 
ATOM     22  C   UNL     1      -5.261   0.269   0.863  0.00  0.00    +0.031 A 
ATOM     23  C   UNL     1      -6.263   1.269   1.382  0.00  0.00    +0.064 C 
ATOM     24  N   UNL     1      -5.250  -1.050   1.133  0.00  0.00    -0.349 N 
ATOM     25  C   UNL     1      -6.219  -1.736   1.991  0.00  0.00    +0.149 C 
ATOM     26  C   UNL     1      -4.205  -1.655   0.499  0.00  0.00    +0.043 A 
ATOM     27  C   UNL     1      -3.869  -3.123   0.572  0.00  0.00    +0.065 C 
ATOM     28  C   UNL     1      -3.521  -0.733  -0.201  0.00  0.00    +0.140 A 
BRANCH  21  29
ATOM     29  C   UNL     1      -3.833   1.857  -0.532  0.00  0.00    +0.343 C 
ATOM     30  O   UNL     1      -4.292   2.218  -1.598  0.00  0.00    -0.245 OA
BRANCH  29  31
ATOM     31  O   UNL     1      -2.985   2.658   0.142  0.00  0.00    -0.461 OA
BRANCH  31  33
ATOM     32  C   UNL     1      -1.651   4.655   0.550  0.00  0.00    +0.048 C 
ATOM     33  C   UNL     1      -2.619   3.952  -0.405  0.00  0.00    +0.229 C 
ENDBRANCH  31  33
ENDBRANCH  29  31
ENDBRANCH  21  29
ENDBRANCH  18  28
ENDBRANCH   1  18
TORSDOF 6
