REMARK  Name = m321
REMARK  7 active torsions:
REMARK  status: ('A' for Active; 'I' for Inactive)
REMARK    1  A    between atoms: C_2  and  C_7
REMARK    2  A    between atoms: N_3  and  C_4
REMARK    3  A    between atoms: C_4  and  C_5
REMARK    4  A    between atoms: C_5  and  O_6
REMARK    5  A    between atoms: C_15  and  C_16
REMARK    6  A    between atoms: C_19  and  C_21
REMARK    7  A    between atoms: C_21  and  C_22
REMARK                            x       y       z     vdW  Elec       q    Type
REMARK                         _______ _______ _______ _____ _____    ______ ____
ROOT
ATOM      1  C   UNL     1       2.956  -0.175   0.112  0.00  0.00    +0.082 A 
ATOM      2  C   UNL     1       1.948  -0.988  -0.300  0.00  0.00    +0.011 A 
ATOM      3  C   UNL     1       2.065  -2.380  -0.148  0.00  0.00    +0.014 A 
ATOM      4  C   UNL     1       3.264  -2.830   0.455  0.00  0.00    +0.109 A 
ATOM      5  N   UNL     1       3.516  -4.102   0.669  0.00  0.00    -0.248 NA
ATOM      6  C   UNL     1       2.651  -5.037   0.328  0.00  0.00    +0.112 A 
ATOM      7  C   UNL     1       1.446  -4.695  -0.270  0.00  0.00    +0.020 A 
ATOM      8  C   UNL     1       1.136  -3.390  -0.514  0.00  0.00    +0.012 A 
ATOM      9  S   UNL     1       4.154  -1.324   0.766  0.00  0.00    -0.064 S 
ENDROOT
BRANCH   2  10
ATOM     10  C   UNL     1       0.710  -0.398  -0.925  0.00  0.00    +0.167 C 
ATOM     11  O   UNL     1       1.085   0.600  -1.874  0.00  0.00    -0.369 OA
ATOM     12  C   UNL     1      -0.090   0.985  -2.587  0.00  0.00    +0.179 C 
ATOM     13  C   UNL     1      -1.034   1.744  -1.649  0.00  0.00    +0.136 C 
ATOM     14  N   UNL     1      -1.310   0.887  -0.483  0.00  0.00    -0.296 N 
ATOM     15  C   UNL     1      -2.566   0.707  -0.028  0.00  0.00    +0.220 C 
ATOM     16  O   UNL     1      -2.767  -0.004   0.934  0.00  0.00    -0.275 OA
ATOM     17  C   UNL     1      -0.161   0.234   0.167  0.00  0.00    +0.144 C 
BRANCH  15  18
ATOM     18  C   UNL     1      -3.721   1.389  -0.716  0.00  0.00    +0.131 C 
BRANCH  18  19
ATOM     19  C   UNL     1      -5.007   1.027  -0.017  0.00  0.00    -0.036 A 
ATOM     20  C   UNL     1      -5.725  -0.081  -0.425  0.00  0.00    +0.042 A 
ATOM     21  C   UNL     1      -6.904  -0.417   0.221  0.00  0.00    +0.124 A 
ATOM     22  F   UNL     1      -7.605  -1.502  -0.174  0.00  0.00    -0.205 F 
ATOM     23  C   UNL     1      -7.365   0.364   1.267  0.00  0.00    +0.038 A 
ATOM     24  C   UNL     1      -6.648   1.474   1.669  0.00  0.00    +0.003 A 
ATOM     25  C   UNL     1      -5.469   1.805   1.028  0.00  0.00    +0.004 A 
ENDBRANCH  18  19
ENDBRANCH  15  18
ENDBRANCH   2  10
BRANCH   1  27
ATOM     26  O   UNL     1       2.120   1.929  -0.440  0.00  0.00    -0.270 OA
ATOM     27  C   UNL     1       3.037   1.291   0.043  0.00  0.00    +0.251 C 
ATOM     28  N   UNL     1       4.124   1.930   0.518  0.00  0.00    -0.309 N 
ATOM     29  H   UNL     1       4.855   1.421   0.903  0.00  0.00    +0.149 HD
BRANCH  28  30
ATOM     30  C   UNL     1       4.202   3.391   0.454  0.00  0.00    +0.132 C 
BRANCH  30  31
ATOM     31  C   UNL     1       5.529   3.858   1.056  0.00  0.00    +0.174 C 
BRANCH  31  32
ATOM     32  O   UNL     1       6.610   3.386   0.250  0.00  0.00    -0.393 OA
ATOM     33  H   UNL     1       7.426   3.701   0.663  0.00  0.00    +0.209 HD
ENDBRANCH  31  32
ENDBRANCH  30  31
ENDBRANCH  28  30
ENDBRANCH   1  27
TORSDOF 7
