REMARK  Name = m322
REMARK  6 active torsions:
REMARK  status: ('A' for Active; 'I' for Inactive)
REMARK    1  A    between atoms: C_1  and  N_2
REMARK    2  A    between atoms: C_4  and  C_5
REMARK    3  A    between atoms: C_9  and  C_11
REMARK    4  A    between atoms: C_16  and  C_17
REMARK    5  A    between atoms: C_21  and  O_22
REMARK    6  A    between atoms: O_22  and  C_23
REMARK                            x       y       z     vdW  Elec       q    Type
REMARK                         _______ _______ _______ _____ _____    ______ ____
ROOT
ATOM      1  C   UNL     1      -0.333  -1.848   0.043  0.00  0.00    +0.082 A 
ATOM      2  C   UNL     1      -1.796  -1.901   0.124  0.00  0.00    +0.105 A 
ATOM      3  N   UNL     1      -2.141  -3.165   0.025  0.00  0.00    -0.173 NA
ATOM      4  N   UNL     1      -0.987  -3.944  -0.107  0.00  0.00    -0.283 N 
ATOM      5  H   UNL     1      -0.973  -4.910  -0.192  0.00  0.00    +0.188 HD
ATOM      6  C   UNL     1       0.096  -3.152  -0.096  0.00  0.00    +0.118 A 
ENDROOT
BRANCH   1  10
ATOM      7  C   UNL     1       4.071  -0.164  -0.662  0.00  0.00    +0.041 C 
ATOM      8  C   UNL     1       2.811   0.364   0.068  0.00  0.00    +0.116 C 
ATOM      9  N   UNL     1       1.851  -0.754   0.021  0.00  0.00    -0.297 N 
ATOM     10  C   UNL     1       0.511  -0.643   0.104  0.00  0.00    +0.250 C 
ATOM     11  O   UNL     1      -0.002   0.453   0.229  0.00  0.00    -0.270 OA
ATOM     12  C   UNL     1       2.599  -2.011  -0.131  0.00  0.00    +0.109 C 
ATOM     13  C   UNL     1       4.097  -1.647  -0.207  0.00  0.00    +0.029 C 
BRANCH   7  18
ATOM     14  C   UNL     1       8.349   2.448  -0.650  0.00  0.00    +0.172 C 
ATOM     15  N   UNL     1       7.170   1.702  -0.203  0.00  0.00    -0.274 N 
ATOM     16  N   UNL     1       6.835   1.412   1.126  0.00  0.00    -0.180 NA
ATOM     17  C   UNL     1       5.715   0.734   1.126  0.00  0.00    +0.138 A 
ATOM     18  C   UNL     1       5.308   0.564  -0.201  0.00  0.00    -0.005 A 
ATOM     19  C   UNL     1       6.220   1.168  -0.998  0.00  0.00    +0.112 A 
ENDBRANCH   7  18
ENDBRANCH   1  10
BRANCH   2  20
ATOM     20  C   UNL     1      -2.713  -0.746   0.279  0.00  0.00    +0.006 A 
ATOM     21  C   UNL     1      -3.909  -0.703  -0.434  0.00  0.00    +0.056 A 
ATOM     22  C   UNL     1      -4.764   0.376  -0.280  0.00  0.00    +0.127 A 
ATOM     23  C   UNL     1      -4.423   1.416   0.573  0.00  0.00    +0.046 A 
ATOM     24  C   UNL     1      -3.234   1.377   1.277  0.00  0.00    +0.004 A 
ATOM     25  C   UNL     1      -2.379   0.303   1.135  0.00  0.00    +0.010 A 
BRANCH  22  26
ATOM     26  O   UNL     1      -5.934   0.419  -0.970  0.00  0.00    -0.434 OA
BRANCH  26  27
ATOM     27  C   UNL     1      -6.582   1.641  -0.610  0.00  0.00    +0.541 C 
ATOM     28  F   UNL     1      -5.763   2.721  -0.954  0.00  0.00    -0.166 F 
ATOM     29  F   UNL     1      -6.817   1.655   0.769  0.00  0.00    -0.166 F 
ENDBRANCH  26  27
ENDBRANCH  22  26
ENDBRANCH   2  20
TORSDOF 5
