REMARK  Name = m323
REMARK  6 active torsions:
REMARK  status: ('A' for Active; 'I' for Inactive)
REMARK    1  A    between atoms: C_2  and  C_7
REMARK    2  A    between atoms: N_3  and  C_4
REMARK    3  A    between atoms: C_4  and  C_5
REMARK    4  A    between atoms: C_5  and  O_6
REMARK    5  A    between atoms: C_15  and  C_16
REMARK    6  A    between atoms: C_19  and  C_21
REMARK                            x       y       z     vdW  Elec       q    Type
REMARK                         _______ _______ _______ _____ _____    ______ ____
ROOT
ATOM      1  C   UNL     1       2.315   0.135   0.038  0.00  0.00    +0.082 A 
ATOM      2  C   UNL     1       1.507  -0.914  -0.267  0.00  0.00    +0.011 A 
ATOM      3  C   UNL     1       2.015  -2.224  -0.222  0.00  0.00    +0.014 A 
ATOM      4  C   UNL     1       3.373  -2.341   0.164  0.00  0.00    +0.109 A 
ATOM      5  N   UNL     1       3.986  -3.499   0.257  0.00  0.00    -0.248 NA
ATOM      6  C   UNL     1       3.358  -4.629  -0.008  0.00  0.00    +0.112 A 
ATOM      7  C   UNL     1       2.025  -4.618  -0.394  0.00  0.00    +0.020 A 
ATOM      8  C   UNL     1       1.343  -3.442  -0.506  0.00  0.00    +0.012 A 
ATOM      9  S   UNL     1       3.866  -0.655   0.430  0.00  0.00    -0.064 S 
ENDROOT
BRANCH   2  10
ATOM     10  C   UNL     1       0.072  -0.674  -0.659  0.00  0.00    +0.167 C 
ATOM     11  O   UNL     1       0.008   0.406  -1.589  0.00  0.00    -0.369 OA
ATOM     12  C   UNL     1      -1.327   0.469  -2.091  0.00  0.00    +0.179 C 
ATOM     13  C   UNL     1      -2.274   0.923  -0.975  0.00  0.00    +0.136 C 
ATOM     14  N   UNL     1      -2.118   0.000   0.163  0.00  0.00    -0.291 N 
ATOM     15  C   UNL     1      -3.189  -0.525   0.790  0.00  0.00    +0.265 C 
ATOM     16  O   UNL     1      -3.037  -1.388   1.632  0.00  0.00    -0.268 OA
ATOM     17  C   UNL     1      -0.746  -0.326   0.590  0.00  0.00    +0.144 C 
BRANCH  15  18
ATOM     18  C   UNL     1      -4.551  -0.049   0.454  0.00  0.00    +0.126 A 
ATOM     19  N   UNL     1      -4.704   1.000  -0.344  0.00  0.00    -0.250 NA
ATOM     20  C   UNL     1      -5.895   1.451  -0.671  0.00  0.00    +0.111 A 
ATOM     21  C   UNL     1      -7.043   0.848  -0.183  0.00  0.00    +0.020 A 
ATOM     22  C   UNL     1      -6.929  -0.248   0.658  0.00  0.00    +0.004 A 
ATOM     23  C   UNL     1      -5.662  -0.704   0.982  0.00  0.00    +0.033 A 
ENDBRANCH  15  18
ENDBRANCH   2  10
BRANCH   1  25
ATOM     24  O   UNL     1       0.870   1.940  -0.248  0.00  0.00    -0.270 OA
ATOM     25  C   UNL     1       1.989   1.568   0.049  0.00  0.00    +0.251 C 
ATOM     26  N   UNL     1       2.929   2.470   0.394  0.00  0.00    -0.309 N 
ATOM     27  H   UNL     1       3.822   2.174   0.631  0.00  0.00    +0.149 HD
BRANCH  26  28
ATOM     28  C   UNL     1       2.603   3.899   0.411  0.00  0.00    +0.132 C 
BRANCH  28  29
ATOM     29  C   UNL     1       3.836   4.699   0.833  0.00  0.00    +0.174 C 
BRANCH  29  30
ATOM     30  O   UNL     1       4.858   4.556  -0.156  0.00  0.00    -0.393 OA
ATOM     31  H   UNL     1       5.616   5.075   0.148  0.00  0.00    +0.209 HD
ENDBRANCH  29  30
ENDBRANCH  28  29
ENDBRANCH  26  28
ENDBRANCH   1  25
TORSDOF 6
