REMARK  Name = m324
REMARK  11 active torsions:
REMARK  status: ('A' for Active; 'I' for Inactive)
REMARK    1  A    between atoms: C_1  and  C_2
REMARK    2  A    between atoms: C_2  and  O_3
REMARK    3  A    between atoms: O_3  and  C_4
REMARK    4  A    between atoms: C_4  and  C_6
REMARK    5  A    between atoms: C_7  and  S_8
REMARK    6  A    between atoms: S_8  and  N_11
REMARK    7  A    between atoms: C_14  and  C_15
REMARK    8  A    between atoms: C_21  and  C_22
REMARK    9  A    between atoms: C_27  and  C_28
REMARK   10  A    between atoms: N_29  and  C_30
REMARK   11  A    between atoms: C_31  and  C_32
REMARK                            x       y       z     vdW  Elec       q    Type
REMARK                         _______ _______ _______ _____ _____    ______ ____
ROOT
ATOM      1  N   UNL     1      -0.767  -0.757  -0.212  0.00  0.00    -0.176 NA
ATOM      2  C   UNL     1      -0.188   0.580  -0.023  0.00  0.00    +0.110 C 
ATOM      3  C   UNL     1       1.311   0.518  -0.315  0.00  0.00    +0.030 C 
ATOM      4  C   UNL     1       1.951  -0.572   0.547  0.00  0.00    +0.078 C 
ATOM      5  C   UNL     1       1.333  -1.929   0.198  0.00  0.00    +0.030 C 
ATOM      6  C   UNL     1      -0.168  -1.894   0.500  0.00  0.00    +0.110 C 
ENDROOT
BRANCH   4   7
ATOM      7  C   UNL     1       3.434  -0.614   0.283  0.00  0.00    +0.221 C 
ATOM      8  N   UNL     1       4.192   0.476   0.519  0.00  0.00    -0.270 N 
ATOM      9  H   UNL     1       3.773   1.309   0.786  0.00  0.00    +0.156 HD
ATOM     10  C   UNL     1       5.577   0.406   0.379  0.00  0.00    +0.125 A 
ATOM     11  N   UNL     1       6.134  -0.704  -0.080  0.00  0.00    -0.240 NA
ATOM     12  C   UNL     1       7.440  -0.810  -0.233  0.00  0.00    +0.116 A 
ATOM     13  C   UNL     1       8.279   0.237   0.094  0.00  0.00    -0.032 A 
ATOM     14  C   UNL     1       9.770   0.101  -0.078  0.00  0.00    +0.045 C 
ATOM     15  C   UNL     1       7.734   1.416   0.584  0.00  0.00    +0.008 A 
ATOM     16  C   UNL     1       6.361   1.500   0.728  0.00  0.00    +0.044 A 
ATOM     17  O   UNL     1       3.947  -1.628  -0.142  0.00  0.00    -0.275 OA
ENDBRANCH   4   7
BRANCH   1  18
ATOM     18  S   UNL     1      -2.067  -0.979  -1.214  0.00  0.00    +0.063 S 
ATOM     19  O   UNL     1      -2.056   0.124  -2.111  0.00  0.00    -0.153 OA
ATOM     20  O   UNL     1      -2.033  -2.348  -1.593  0.00  0.00    -0.153 OA
BRANCH  18  28
ATOM     21  C   UNL     1      -4.259   0.457   0.007  0.00  0.00    +0.106 A 
ATOM     22  C   UNL     1      -5.316   0.117   0.825  0.00  0.00    +0.031 A 
ATOM     23  C   UNL     1      -6.363   1.062   1.355  0.00  0.00    +0.064 C 
ATOM     24  N   UNL     1      -5.255  -1.207   1.062  0.00  0.00    -0.349 N 
ATOM     25  C   UNL     1      -6.207  -1.953   1.887  0.00  0.00    +0.149 C 
ATOM     26  C   UNL     1      -4.178  -1.754   0.427  0.00  0.00    +0.043 A 
ATOM     27  C   UNL     1      -3.786  -3.209   0.468  0.00  0.00    +0.065 C 
ATOM     28  C   UNL     1      -3.522  -0.788  -0.239  0.00  0.00    +0.140 A 
BRANCH  21  29
ATOM     29  C   UNL     1      -3.933   1.796  -0.508  0.00  0.00    +0.343 C 
ATOM     30  O   UNL     1      -4.391   2.166  -1.571  0.00  0.00    -0.245 OA
BRANCH  29  31
ATOM     31  O   UNL     1      -3.126   2.612   0.199  0.00  0.00    -0.461 OA
BRANCH  31  33
ATOM     32  C   UNL     1      -1.879   4.648   0.677  0.00  0.00    +0.048 C 
ATOM     33  C   UNL     1      -2.804   3.933  -0.310  0.00  0.00    +0.229 C 
ENDBRANCH  31  33
ENDBRANCH  29  31
ENDBRANCH  21  29
ENDBRANCH  18  28
ENDBRANCH   1  18
TORSDOF 6
