REMARK  Name = m325
REMARK  3 active torsions:
REMARK  status: ('A' for Active; 'I' for Inactive)
REMARK    1  A    between atoms: C_2  and  C_3
REMARK    2  A    between atoms: C_3  and  N_4
REMARK    3  A    between atoms: N_23  and  C_24
REMARK                            x       y       z     vdW  Elec       q    Type
REMARK                         _______ _______ _______ _____ _____    ______ ____
ROOT
ATOM      1  N   UNL     1       0.635  -0.411  -1.451  0.00  0.00    -0.203 N 
ATOM      2  C   UNL     1       1.255  -1.522  -1.002  0.00  0.00    +0.352 A 
ATOM      3  O   UNL     1       0.850  -2.666  -1.115  0.00  0.00    -0.244 OA
ATOM      4  N   UNL     1       2.400  -1.142  -0.408  0.00  0.00    -0.239 N 
ATOM      5  C   UNL     1       2.491   0.239  -0.483  0.00  0.00    +0.203 A 
ATOM      6  C   UNL     1       3.662   0.907   0.105  0.00  0.00    +0.167 A 
ATOM      7  N   UNL     1       4.598   0.197   0.687  0.00  0.00    -0.227 NA
ATOM      8  C   UNL     1       4.517  -1.159   0.765  0.00  0.00    +0.090 A 
ATOM      9  C   UNL     1       5.538  -1.880   1.396  0.00  0.00    +0.030 A 
ATOM     10  C   UNL     1       5.462  -3.253   1.477  0.00  0.00    +0.002 A 
ATOM     11  C   UNL     1       4.379  -3.928   0.938  0.00  0.00    +0.002 A 
ATOM     12  C   UNL     1       3.363  -3.232   0.313  0.00  0.00    +0.028 A 
ATOM     13  N   UNL     1       3.776   2.282   0.044  0.00  0.00    -0.312 N 
ATOM     14  C   UNL     1       2.805   3.198  -0.582  0.00  0.00    +0.106 C 
ATOM     15  C   UNL     1       3.032   4.558   0.128  0.00  0.00    +0.020 C 
ATOM     16  C   UNL     1       4.573   4.559   0.311  0.00  0.00    +0.020 C 
ATOM     17  C   UNL     1       4.888   3.074   0.589  0.00  0.00    +0.106 C 
ATOM     18  C   UNL     1       3.423  -1.849   0.222  0.00  0.00    +0.078 A 
ATOM     19  N   UNL     1       1.436   0.688  -1.107  0.00  0.00    -0.145 NA
ENDROOT
BRANCH   1  20
ATOM     20  C   UNL     1      -0.644  -0.361  -2.163  0.00  0.00    +0.244 C 
BRANCH  20  22
ATOM     21  O   UNL     1      -1.524  -0.186   0.020  0.00  0.00    -0.273 OA
ATOM     22  C   UNL     1      -1.768  -0.232  -1.167  0.00  0.00    +0.239 C 
ATOM     23  N   UNL     1      -3.044  -0.173  -1.596  0.00  0.00    -0.284 N 
ATOM     24  H   UNL     1      -3.246  -0.290  -2.537  0.00  0.00    +0.155 HD
BRANCH  23  25
ATOM     25  C   UNL     1      -4.080   0.059  -0.681  0.00  0.00    +0.037 A 
ATOM     26  C   UNL     1      -5.300  -0.586  -0.837  0.00  0.00    +0.072 A 
ATOM     27  C   UNL     1      -6.322  -0.361   0.070  0.00  0.00    +0.168 A 
ATOM     28  O   UNL     1      -7.590  -0.861   0.146  0.00  0.00    -0.453 OA
ATOM     29  C   UNL     1      -8.304   0.031   1.022  0.00  0.00    +0.466 C 
ATOM     30  O   UNL     1      -7.274   0.573   1.871  0.00  0.00    -0.453 OA
ATOM     31  C   UNL     1      -6.127   0.521   1.131  0.00  0.00    +0.166 A 
ATOM     32  C   UNL     1      -4.910   1.167   1.279  0.00  0.00    +0.051 A 
ATOM     33  C   UNL     1      -3.889   0.937   0.377  0.00  0.00    +0.027 A 
ENDBRANCH  23  25
ENDBRANCH  20  22
ENDBRANCH   1  20
TORSDOF 3
