REMARK  Name = m326
REMARK  3 active torsions:
REMARK  status: ('A' for Active; 'I' for Inactive)
REMARK    1  A    between atoms: C_2  and  C_3
REMARK    2  A    between atoms: C_13  and  C_14
REMARK    3  A    between atoms: C_15  and  C_16
REMARK                            x       y       z     vdW  Elec       q    Type
REMARK                         _______ _______ _______ _____ _____    ______ ____
ROOT
ATOM      1  C   UNL     1      -0.992   1.188  -0.387  0.00  0.00    +0.011 A 
ATOM      2  C   UNL     1      -1.391   2.520  -0.183  0.00  0.00    +0.014 A 
ATOM      3  C   UNL     1      -2.762   2.708   0.117  0.00  0.00    +0.109 A 
ATOM      4  N   UNL     1      -3.285   3.894   0.329  0.00  0.00    -0.248 NA
ATOM      5  C   UNL     1      -2.549   4.987   0.268  0.00  0.00    +0.112 A 
ATOM      6  C   UNL     1      -1.195   4.907  -0.025  0.00  0.00    +0.020 A 
ATOM      7  S   UNL     1      -3.410   1.054   0.112  0.00  0.00    -0.064 S 
ATOM      8  C   UNL     1      -0.604   3.699  -0.254  0.00  0.00    +0.012 A 
ATOM      9  C   UNL     1      -1.902   0.185  -0.281  0.00  0.00    +0.082 A 
ENDROOT
BRANCH   1  14
ATOM     10  O   UNL     1       3.419   0.978   1.851  0.00  0.00    -0.268 OA
ATOM     11  C   UNL     1       3.564   0.234   0.900  0.00  0.00    +0.267 C 
ATOM     12  N   UNL     1       2.504  -0.102   0.139  0.00  0.00    -0.291 N 
ATOM     13  C   UNL     1       1.135   0.282   0.523  0.00  0.00    +0.144 C 
ATOM     14  C   UNL     1       0.445   0.873  -0.717  0.00  0.00    +0.167 C 
ATOM     15  O   UNL     1       0.490  -0.074  -1.784  0.00  0.00    -0.369 OA
ATOM     16  C   UNL     1       1.849  -0.190  -2.204  0.00  0.00    +0.179 C 
ATOM     17  C   UNL     1       2.670  -0.874  -1.105  0.00  0.00    +0.136 C 
BRANCH  11  18
ATOM     18  C   UNL     1       4.902  -0.305   0.583  0.00  0.00    +0.147 A 
ATOM     19  N   UNL     1       5.187  -1.206  -0.337  0.00  0.00    -0.169 NA
ATOM     20  N   UNL     1       6.450  -1.442  -0.346  0.00  0.00    -0.284 N 
ATOM     21  H   UNL     1       6.893  -2.068  -0.941  0.00  0.00    +0.188 HD
ATOM     22  C   UNL     1       7.071  -0.698   0.594  0.00  0.00    +0.105 A 
ATOM     23  C   UNL     1       6.121   0.043   1.211  0.00  0.00    +0.054 A 
ENDBRANCH  11  18
ENDBRANCH   1  14
BRANCH   9  24
ATOM     24  C   UNL     1      -1.696  -1.261  -0.448  0.00  0.00    +0.254 C 
ATOM     25  N   UNL     1      -2.718  -2.115  -0.247  0.00  0.00    -0.293 N 
ATOM     26  C   UNL     1      -3.903  -1.720   0.534  0.00  0.00    +0.136 C 
ATOM     27  C   UNL     1      -4.218  -2.836   1.531  0.00  0.00    +0.179 C 
ATOM     28  O   UNL     1      -4.381  -4.070   0.834  0.00  0.00    -0.377 OA
ATOM     29  C   UNL     1      -3.106  -4.451   0.319  0.00  0.00    +0.179 C 
ATOM     30  C   UNL     1      -2.691  -3.483  -0.794  0.00  0.00    +0.136 C 
ATOM     31  O   UNL     1      -0.602  -1.686  -0.769  0.00  0.00    -0.269 OA
ENDBRANCH   9  24
TORSDOF 3
