REMARK  Name = m327
REMARK  9 active torsions:
REMARK  status: ('A' for Active; 'I' for Inactive)
REMARK    1  A    between atoms: C_1  and  C_2
REMARK    2  A    between atoms: C_2  and  C_3
REMARK    3  A    between atoms: C_3  and  C_4
REMARK    4  A    between atoms: C_4  and  N_5
REMARK    5  A    between atoms: C_6  and  C_8
REMARK    6  A    between atoms: C_8  and  N_9
REMARK    7  A    between atoms: C_14  and  C_15
REMARK    8  A    between atoms: C_17  and  C_18
REMARK    9  A    between atoms: C_26  and  C_27
REMARK                            x       y       z     vdW  Elec       q    Type
REMARK                         _______ _______ _______ _____ _____    ______ ____
ROOT
ATOM      1  N   UNL     1       2.958   1.285  -0.784  0.00  0.00    -0.290 N 
ATOM      2  C   UNL     1       1.994   0.377  -1.029  0.00  0.00    +0.263 A 
ATOM      3  O   UNL     1       2.251  -0.669  -1.599  0.00  0.00    -0.267 OA
ATOM      4  C   UNL     1       0.615   0.679  -0.584  0.00  0.00    +0.076 A 
ATOM      5  C   UNL     1       0.455   1.927   0.058  0.00  0.00    +0.116 A 
ATOM      6  S   UNL     1      -1.277   1.968   0.444  0.00  0.00    -0.063 S 
ATOM      7  C   UNL     1      -1.730   0.381  -0.234  0.00  0.00    +0.082 A 
ATOM      8  N   UNL     1       1.476   2.754   0.245  0.00  0.00    -0.230 NA
ATOM      9  C   UNL     1      -0.545  -0.091  -0.714  0.00  0.00    -0.017 A 
ATOM     10  C   UNL     1      -0.485  -1.440  -1.384  0.00  0.00    +0.046 C 
ATOM     11  C   UNL     1       2.682   2.455  -0.155  0.00  0.00    +0.203 A 
ENDROOT
BRANCH   7  12
ATOM     12  C   UNL     1      -3.052  -0.258  -0.267  0.00  0.00    +0.266 A 
ATOM     13  O   UNL     1      -3.350  -1.457  -0.795  0.00  0.00    -0.332 OA
ATOM     14  N   UNL     1      -4.531  -1.689  -0.652  0.00  0.00    -0.056 NA
ATOM     15  C   UNL     1      -5.121  -0.693  -0.042  0.00  0.00    +0.202 A 
ATOM     16  N   UNL     1      -4.181   0.239   0.214  0.00  0.00    -0.187 NA
BRANCH  15  17
ATOM     17  C   UNL     1      -6.563  -0.604   0.304  0.00  0.00    +0.025 A 
ATOM     18  C   UNL     1      -7.075   0.515   0.964  0.00  0.00    +0.031 A 
ATOM     19  C   UNL     1      -8.422   0.560   1.262  0.00  0.00    +0.111 A 
ATOM     20  N   UNL     1      -9.219  -0.441   0.942  0.00  0.00    -0.263 NA
ATOM     21  C   UNL     1      -8.775  -1.519   0.325  0.00  0.00    +0.111 A 
ATOM     22  C   UNL     1      -7.442  -1.641  -0.016  0.00  0.00    +0.031 A 
ENDBRANCH  15  17
ENDBRANCH   7  12
BRANCH   1  23
ATOM     23  C   UNL     1       4.332   1.006  -1.210  0.00  0.00    +0.221 C 
BRANCH  23  26
ATOM     24  N   UNL     1       6.356  -0.058  -0.269  0.00  0.00    -0.314 N 
ATOM     25  H   UNL     1       6.810   0.139  -1.103  0.00  0.00    +0.149 HD
ATOM     26  C   UNL     1       5.068   0.300  -0.101  0.00  0.00    +0.233 C 
ATOM     27  O   UNL     1       4.501   0.053   0.943  0.00  0.00    -0.274 OA
BRANCH  24  28
ATOM     28  C   UNL     1       7.072  -0.746   0.809  0.00  0.00    +0.104 C 
BRANCH  28  29
ATOM     29  C   UNL     1       8.507  -1.037   0.364  0.00  0.00    +0.018 C 
BRANCH  29  31
ATOM     30  C   UNL     1      10.689  -2.045   1.045  0.00  0.00    +0.004 C 
ATOM     31  C   UNL     1       9.254  -1.754   1.490  0.00  0.00    -0.002 C 
ENDBRANCH  29  31
ENDBRANCH  28  29
ENDBRANCH  24  28
ENDBRANCH  23  26
ENDBRANCH   1  23
TORSDOF 7
