REMARK  Name = m328
REMARK  6 active torsions:
REMARK  status: ('A' for Active; 'I' for Inactive)
REMARK    1  A    between atoms: C_1  and  C_2
REMARK    2  A    between atoms: C_4  and  N_5
REMARK    3  A    between atoms: C_8  and  C_9
REMARK    4  A    between atoms: N_11  and  C_12
REMARK    5  A    between atoms: C_12  and  C_13
REMARK    6  A    between atoms: C_26  and  C_27
REMARK                            x       y       z     vdW  Elec       q    Type
REMARK                         _______ _______ _______ _____ _____    ______ ____
ROOT
ATOM      1  N   UNL     1       1.061  -0.708  -0.200  0.00  0.00    -0.315 N 
ATOM      2  C   UNL     1      -0.031  -0.588   0.776  0.00  0.00    +0.107 C 
ATOM      3  C   UNL     1      -1.367  -0.655   0.039  0.00  0.00    +0.031 C 
ATOM      4  C   UNL     1      -1.392   0.405  -1.065  0.00  0.00    +0.078 C 
ATOM      5  C   UNL     1      -0.271   0.125  -2.068  0.00  0.00    +0.031 C 
ATOM      6  C   UNL     1       1.081   0.205  -1.352  0.00  0.00    +0.107 C 
ENDROOT
BRANCH   1  14
ATOM      7  C   UNL     1       2.398  -5.405   0.147  0.00  0.00    +0.066 C 
ATOM      8  C   UNL     1       2.738  -3.937   0.132  0.00  0.00    +0.044 A 
ATOM      9  N   UNL     1       3.988  -3.554   0.277  0.00  0.00    -0.233 NA
ATOM     10  C   UNL     1       4.318  -2.254   0.263  0.00  0.00    +0.158 A 
ATOM     11  N   UNL     1       3.354  -1.291   0.106  0.00  0.00    -0.200 N 
ATOM     12  N   UNL     1       3.984  -0.042   0.137  0.00  0.00    -0.163 NA
ATOM     13  C   UNL     1       5.282  -0.225   0.305  0.00  0.00    +0.095 A 
ATOM     14  C   UNL     1       2.043  -1.661  -0.042  0.00  0.00    +0.127 A 
ATOM     15  C   UNL     1       5.533  -1.598   0.389  0.00  0.00    +0.078 A 
ATOM     16  C   UNL     1       1.725  -2.992  -0.030  0.00  0.00    +0.066 A 
BRANCH  13  17
ATOM     17  C   UNL     1       6.303   0.849   0.390  0.00  0.00    +0.002 A 
ATOM     18  C   UNL     1       7.345   0.750   1.309  0.00  0.00    +0.013 A 
ATOM     19  C   UNL     1       8.296   1.747   1.381  0.00  0.00    +0.039 A 
ATOM     20  C   UNL     1       8.209   2.852   0.549  0.00  0.00    +0.123 A 
ATOM     21  F   UNL     1       9.139   3.829   0.626  0.00  0.00    -0.205 F 
ATOM     22  C   UNL     1       7.170   2.957  -0.362  0.00  0.00    +0.039 A 
ATOM     23  C   UNL     1       6.219   1.961  -0.445  0.00  0.00    +0.013 A 
ENDBRANCH  13  17
ENDBRANCH   1  14
BRANCH   4  24
ATOM     24  C   UNL     1      -2.722   0.361  -1.773  0.00  0.00    +0.216 C 
ATOM     25  N   UNL     1      -3.859   0.580  -1.084  0.00  0.00    -0.311 N 
ATOM     26  H   UNL     1      -3.822   0.765  -0.132  0.00  0.00    +0.149 HD
ATOM     27  O   UNL     1      -2.768   0.130  -2.962  0.00  0.00    -0.276 OA
BRANCH  25  28
ATOM     28  C   UNL     1      -5.152   0.538  -1.772  0.00  0.00    +0.139 C 
BRANCH  28  29
ATOM     29  C   UNL     1      -6.256   0.813  -0.784  0.00  0.00    -0.027 A 
ATOM     30  C   UNL     1      -6.850  -0.234  -0.105  0.00  0.00    +0.054 A 
ATOM     31  C   UNL     1      -7.862   0.017   0.808  0.00  0.00    +0.167 A 
ATOM     32  O   UNL     1      -8.597  -0.819   1.598  0.00  0.00    -0.453 OA
ATOM     33  C   UNL     1      -9.749  -0.055   2.001  0.00  0.00    +0.466 C 
ATOM     34  O   UNL     1      -9.286   1.308   1.959  0.00  0.00    -0.453 OA
ATOM     35  C   UNL     1      -8.286   1.325   1.030  0.00  0.00    +0.166 A 
ATOM     36  C   UNL     1      -7.690   2.369   0.341  0.00  0.00    +0.050 A 
ATOM     37  C   UNL     1      -6.677   2.111  -0.564  0.00  0.00    +0.009 A 
ENDBRANCH  28  29
ENDBRANCH  25  28
ENDBRANCH   4  24
TORSDOF 5
