REMARK  Name = m329
REMARK  8 active torsions:
REMARK  status: ('A' for Active; 'I' for Inactive)
REMARK    1  A    between atoms: C_1  and  C_2
REMARK    2  A    between atoms: C_7  and  C_9
REMARK    3  A    between atoms: N_12  and  S_13
REMARK    4  A    between atoms: S_13  and  C_16
REMARK    5  A    between atoms: C_17  and  C_18
REMARK    6  A    between atoms: N_20  and  C_21
REMARK    7  A    between atoms: C_21  and  C_22
REMARK    8  A    between atoms: C_33  and  C_34
REMARK                            x       y       z     vdW  Elec       q    Type
REMARK                         _______ _______ _______ _____ _____    ______ ____
ROOT
ATOM      1  S   UNL     1       0.096  -3.743  -0.351  0.00  0.00    +0.064 S 
ATOM      2  O   UNL     1       0.727  -3.971  -1.603  0.00  0.00    -0.153 OA
ATOM      3  O   UNL     1      -0.084  -4.715   0.669  0.00  0.00    -0.153 OA
ENDROOT
BRANCH   1   4
ATOM      4  C   UNL     1       0.986  -2.420   0.400  0.00  0.00    +0.148 A 
ATOM      5  C   UNL     1       1.744  -1.504  -0.245  0.00  0.00    +0.063 A 
ATOM      6  C   UNL     1       1.973  -1.429  -1.733  0.00  0.00    +0.067 C 
ATOM      7  N   UNL     1       2.252  -0.664   0.681  0.00  0.00    -0.258 N 
ATOM      8  N   UNL     1       1.797  -1.084   1.938  0.00  0.00    -0.174 NA
ATOM      9  C   UNL     1       1.039  -2.136   1.768  0.00  0.00    +0.087 A 
ATOM     10  C   UNL     1       0.343  -2.909   2.859  0.00  0.00    +0.069 C 
BRANCH   7  11
ATOM     11  C   UNL     1       3.128   0.481   0.419  0.00  0.00    +0.239 C 
BRANCH  11  12
ATOM     12  C   UNL     1       4.566   0.032   0.461  0.00  0.00    +0.241 C 
ATOM     13  N   UNL     1       5.555   0.922   0.247  0.00  0.00    -0.269 N 
ATOM     14  C   UNL     1       5.367   2.280  -0.028  0.00  0.00    +0.040 A 
ATOM     15  C   UNL     1       6.574   2.939  -0.197  0.00  0.00    -0.024 A 
ATOM     16  C   UNL     1       6.601   4.293  -0.472  0.00  0.00    +0.005 A 
ATOM     17  C   UNL     1       5.420   5.004  -0.575  0.00  0.00    +0.000 A 
ATOM     18  C   UNL     1       4.210   4.356  -0.403  0.00  0.00    +0.002 A 
ATOM     19  C   UNL     1       7.696   1.938  -0.033  0.00  0.00    +0.056 C 
ATOM     20  C   UNL     1       4.178   3.006  -0.128  0.00  0.00    +0.024 A 
ATOM     21  C   UNL     1       6.986   0.607   0.261  0.00  0.00    +0.118 C 
ATOM     22  O   UNL     1       4.833  -1.129   0.687  0.00  0.00    -0.273 OA
ENDBRANCH  11  12
ENDBRANCH   7  11
ENDBRANCH   1   4
BRANCH   1  26
ATOM     23  C   UNL     1      -3.556  -1.331  -0.865  0.00  0.00    +0.078 C 
ATOM     24  C   UNL     1      -3.131  -1.912   0.485  0.00  0.00    +0.030 C 
ATOM     25  C   UNL     1      -2.511  -3.297   0.269  0.00  0.00    +0.110 C 
ATOM     26  N   UNL     1      -1.420  -3.179  -0.708  0.00  0.00    -0.176 NA
ATOM     27  C   UNL     1      -1.699  -2.552  -2.007  0.00  0.00    +0.110 C 
ATOM     28  C   UNL     1      -2.328  -1.176  -1.765  0.00  0.00    +0.030 C 
BRANCH  23  36
ATOM     29  C   UNL     1      -7.872   5.110   0.497  0.00  0.00    +0.045 C 
ATOM     30  C   UNL     1      -7.211   3.758   0.415  0.00  0.00    -0.032 A 
ATOM     31  C   UNL     1      -6.022   3.604  -0.270  0.00  0.00    +0.116 A 
ATOM     32  N   UNL     1      -5.432   2.426  -0.344  0.00  0.00    -0.240 NA
ATOM     33  C   UNL     1      -5.956   1.350   0.220  0.00  0.00    +0.125 A 
ATOM     34  N   UNL     1      -5.301   0.124   0.112  0.00  0.00    -0.270 N 
ATOM     35  H   UNL     1      -5.640  -0.651   0.586  0.00  0.00    +0.156 HD
ATOM     36  C   UNL     1      -4.196   0.016  -0.653  0.00  0.00    +0.221 C 
ATOM     37  O   UNL     1      -3.718   1.003  -1.170  0.00  0.00    -0.275 OA
ATOM     38  C   UNL     1      -7.154   1.431   0.921  0.00  0.00    +0.044 A 
ATOM     39  C   UNL     1      -7.794   2.654   1.021  0.00  0.00    +0.008 A 
ENDBRANCH  23  36
ENDBRANCH   1  26
TORSDOF 5
