REMARK  Name = m330
REMARK  5 active torsions:
REMARK  status: ('A' for Active; 'I' for Inactive)
REMARK    1  A    between atoms: C_7  and  C_8
REMARK    2  A    between atoms: C_8  and  S_9
REMARK    3  A    between atoms: S_9  and  C_10
REMARK    4  A    between atoms: N_19  and  C_20
REMARK    5  A    between atoms: C_20  and  C_21
REMARK                            x       y       z     vdW  Elec       q    Type
REMARK                         _______ _______ _______ _____ _____    ______ ____
ROOT
ATOM      1  C   UNL     1       0.056   0.003  -0.346  0.00  0.00    +0.173 A 
ATOM      2  N   UNL     1      -0.865   0.954  -0.679  0.00  0.00    -0.285 N 
ATOM      3  C   UNL     1      -2.185   0.695  -0.628  0.00  0.00    +0.263 A 
ATOM      4  O   UNL     1      -2.995   1.554  -0.933  0.00  0.00    -0.267 OA
ATOM      5  C   UNL     1      -2.625  -0.599  -0.206  0.00  0.00    +0.076 A 
ATOM      6  C   UNL     1      -1.609  -1.513   0.123  0.00  0.00    +0.117 A 
ATOM      7  S   UNL     1      -2.505  -2.973   0.591  0.00  0.00    -0.073 S 
ATOM      8  C   UNL     1      -4.152  -2.364   0.349  0.00  0.00    -0.004 A 
ATOM      9  C   UNL     1      -5.440  -3.098   0.565  0.00  0.00    +0.043 C 
ATOM     10  C   UNL     1      -6.584  -2.073   0.589  0.00  0.00    +0.005 C 
ATOM     11  C   UNL     1      -6.423  -1.130  -0.607  0.00  0.00    +0.005 C 
ATOM     12  C   UNL     1      -5.210  -0.224  -0.394  0.00  0.00    +0.037 C 
ATOM     13  C   UNL     1      -3.997  -1.093  -0.073  0.00  0.00    -0.023 A 
ATOM     14  N   UNL     1      -0.322  -1.197   0.047  0.00  0.00    -0.216 NA
ENDROOT
BRANCH   1  15
ATOM     15  S   UNL     1       1.773   0.387  -0.435  0.00  0.00    -0.080 S 
BRANCH  15  16
ATOM     16  C   UNL     1       2.477  -1.189   0.108  0.00  0.00    +0.153 C 
BRANCH  16  22
ATOM     17  N   UNL     1       6.703  -1.667  -2.110  0.00  0.00    -0.327 N 
ATOM     18  H   UNL     1       6.236  -1.968  -2.905  0.00  0.00    +0.145 HD
ATOM     19  H   UNL     1       7.671  -1.606  -2.110  0.00  0.00    +0.145 HD
ATOM     20  C   UNL     1       5.992  -1.332  -0.976  0.00  0.00    +0.217 A 
ATOM     21  N   UNL     1       4.663  -1.410  -0.976  0.00  0.00    -0.199 NA
ATOM     22  C   UNL     1       3.981  -1.094   0.111  0.00  0.00    +0.146 A 
ATOM     23  N   UNL     1       4.613  -0.689   1.198  0.00  0.00    -0.199 NA
ATOM     24  C   UNL     1       5.942  -0.603   1.204  0.00  0.00    +0.217 A 
ATOM     25  N   UNL     1       6.601  -0.179   2.339  0.00  0.00    -0.327 N 
ATOM     26  H   UNL     1       6.097   0.056   3.134  0.00  0.00    +0.145 HD
ATOM     27  H   UNL     1       7.569  -0.117   2.343  0.00  0.00    +0.145 HD
ATOM     28  N   UNL     1       6.631  -0.925   0.115  0.00  0.00    -0.181 NA
ENDBRANCH  16  22
ENDBRANCH  15  16
ENDBRANCH   1  15
BRANCH   2  29
ATOM     29  C   UNL     1      -0.408   2.277  -1.110  0.00  0.00    +0.159 C 
BRANCH  29  30
ATOM     30  C   UNL     1      -0.286   3.196   0.108  0.00  0.00    +0.138 C 
ATOM     31  O   UNL     1      -1.573   3.363   0.725  0.00  0.00    -0.375 OA
ATOM     32  C   UNL     1      -1.619   4.709   1.246  0.00  0.00    +0.160 C 
ATOM     33  C   UNL     1      -0.925   5.548   0.143  0.00  0.00    +0.031 C 
ATOM     34  C   UNL     1       0.195   4.591  -0.335  0.00  0.00    +0.035 C 
ENDBRANCH  29  30
ENDBRANCH   2  29
TORSDOF 5
