REMARK  Name = m331
REMARK  5 active torsions:
REMARK  status: ('A' for Active; 'I' for Inactive)
REMARK    1  A    between atoms: C_1  and  N_2
REMARK    2  A    between atoms: C_3  and  C_5
REMARK    3  A    between atoms: C_13  and  C_14
REMARK    4  A    between atoms: N_16  and  S_17
REMARK    5  A    between atoms: S_17  and  N_20
REMARK                            x       y       z     vdW  Elec       q    Type
REMARK                         _______ _______ _______ _____ _____    ______ ____
ROOT
ATOM      1  C   UNL     1       2.357   1.211   0.097  0.00  0.00    +0.082 A 
ATOM      2  C   UNL     1       2.017  -0.052  -0.274  0.00  0.00    +0.011 A 
ATOM      3  C   UNL     1       2.872  -1.125   0.031  0.00  0.00    +0.014 A 
ATOM      4  C   UNL     1       4.053  -0.785   0.734  0.00  0.00    +0.109 A 
ATOM      5  N   UNL     1       4.946  -1.679   1.093  0.00  0.00    -0.248 NA
ATOM      6  C   UNL     1       4.785  -2.958   0.813  0.00  0.00    +0.112 A 
ATOM      7  C   UNL     1       3.659  -3.390   0.126  0.00  0.00    +0.020 A 
ATOM      8  C   UNL     1       2.702  -2.502  -0.270  0.00  0.00    +0.012 A 
ATOM      9  S   UNL     1       3.920   0.977   0.925  0.00  0.00    -0.064 S 
ENDROOT
BRANCH   2  10
ATOM     10  C   UNL     1       0.729  -0.299  -1.017  0.00  0.00    +0.166 C 
ATOM     11  O   UNL     1       0.580   0.677  -2.047  0.00  0.00    -0.369 OA
ATOM     12  C   UNL     1      -0.533   0.291  -2.853  0.00  0.00    +0.178 C 
ATOM     13  C   UNL     1      -1.828   0.443  -2.047  0.00  0.00    +0.138 C 
ATOM     14  N   UNL     1      -1.696  -0.349  -0.812  0.00  0.00    -0.161 NA
ATOM     15  C   UNL     1      -0.449  -0.202  -0.041  0.00  0.00    +0.147 C 
BRANCH  14  16
ATOM     16  S   UNL     1      -2.903  -1.365  -0.308  0.00  0.00    +0.100 S 
ATOM     17  O   UNL     1      -2.277  -2.317   0.540  0.00  0.00    -0.141 OA
ATOM     18  O   UNL     1      -3.660  -1.672  -1.471  0.00  0.00    -0.141 OA
BRANCH  16  19
ATOM     19  N   UNL     1      -3.913  -0.488   0.667  0.00  0.00    -0.166 NA
ATOM     20  C   UNL     1      -3.785  -0.344   2.129  0.00  0.00    +0.110 C 
ATOM     21  C   UNL     1      -4.510   0.987   2.460  0.00  0.00    +0.018 C 
ATOM     22  C   UNL     1      -5.702   0.944   1.468  0.00  0.00    +0.018 C 
ATOM     23  C   UNL     1      -5.090   0.271   0.221  0.00  0.00    +0.110 C 
ENDBRANCH  16  19
ENDBRANCH  14  16
ENDBRANCH   2  10
BRANCH   1  27
ATOM     24  C   UNL     1       1.378   4.875   0.106  0.00  0.00    +0.128 C 
ATOM     25  N   UNL     1       2.116   3.629   0.326  0.00  0.00    -0.314 N 
ATOM     26  H   UNL     1       2.964   3.645   0.796  0.00  0.00    +0.149 HD
ATOM     27  C   UNL     1       1.617   2.461  -0.125  0.00  0.00    +0.251 C 
ATOM     28  O   UNL     1       0.553   2.442  -0.714  0.00  0.00    -0.270 OA
ENDBRANCH   1  27
TORSDOF 4
