REMARK  Name = m332
REMARK  10 active torsions:
REMARK  status: ('A' for Active; 'I' for Inactive)
REMARK    1  A    between atoms: C_1  and  O_2
REMARK    2  A    between atoms: O_2  and  C_3
REMARK    3  A    between atoms: C_3  and  C_4
REMARK    4  A    between atoms: C_4  and  N_5
REMARK    5  A    between atoms: C_6  and  C_8
REMARK    6  A    between atoms: C_16  and  C_17
REMARK    7  A    between atoms: C_21  and  C_23
REMARK    8  A    between atoms: C_23  and  N_24
REMARK    9  A    between atoms: C_26  and  C_27
REMARK   10  A    between atoms: C_29  and  C_30
REMARK                            x       y       z     vdW  Elec       q    Type
REMARK                         _______ _______ _______ _____ _____    ______ ____
ROOT
ATOM      1  C   UNL     1       2.862   0.208  -0.013  0.00  0.00    +0.080 A 
ATOM      2  C   UNL     1       1.701   0.879   0.205  0.00  0.00    -0.014 A 
ATOM      3  C   UNL     1       1.642   2.266  -0.012  0.00  0.00    +0.012 A 
ATOM      4  C   UNL     1       2.842   2.865  -0.468  0.00  0.00    +0.109 A 
ATOM      5  N   UNL     1       2.941   4.150  -0.721  0.00  0.00    -0.248 NA
ATOM      6  C   UNL     1       1.912   4.960  -0.560  0.00  0.00    +0.112 A 
ATOM      7  C   UNL     1       0.693   4.468  -0.116  0.00  0.00    +0.020 A 
ATOM      8  C   UNL     1       0.538   3.142   0.160  0.00  0.00    +0.012 A 
ATOM      9  S   UNL     1       3.970   1.495  -0.561  0.00  0.00    -0.064 S 
ENDROOT
BRANCH   2  10
ATOM     10  C   UNL     1       0.480   0.138   0.687  0.00  0.00    +0.040 C 
ATOM     11  C   UNL     1      -0.719   0.363  -0.268  0.00  0.00    +0.116 C 
ATOM     12  N   UNL     1      -1.913   0.145   0.569  0.00  0.00    -0.299 N 
ATOM     13  C   UNL     1      -3.132  -0.215   0.120  0.00  0.00    +0.237 C 
ATOM     14  O   UNL     1      -3.314  -0.388  -1.067  0.00  0.00    -0.274 OA
ATOM     15  C   UNL     1      -1.555   0.387   1.974  0.00  0.00    +0.108 C 
ATOM     16  C   UNL     1      -0.055   0.748   2.009  0.00  0.00    +0.029 C 
BRANCH  13  17
ATOM     17  C   UNL     1      -4.268  -0.403   1.091  0.00  0.00    +0.241 C 
BRANCH  17  18
ATOM     18  N   UNL     1      -5.477  -0.791   0.360  0.00  0.00    -0.240 N 
ATOM     19  C   UNL     1      -6.411   0.033  -0.147  0.00  0.00    +0.125 A 
ATOM     20  C   UNL     1      -6.399   1.538  -0.070  0.00  0.00    +0.088 C 
ATOM     21  N   UNL     1      -7.327  -0.700  -0.726  0.00  0.00    -0.217 NA
ATOM     22  C   UNL     1      -7.018  -1.991  -0.603  0.00  0.00    +0.148 A 
ATOM     23  C   UNL     1      -7.834  -3.141  -1.134  0.00  0.00    +0.090 C 
ATOM     24  N   UNL     1      -5.894  -2.097   0.056  0.00  0.00    -0.155 NA
ENDBRANCH  17  18
ENDBRANCH  13  17
ENDBRANCH   2  10
BRANCH   1  27
ATOM     25  N   UNL     1       4.327  -1.733  -0.224  0.00  0.00    -0.309 N 
ATOM     26  H   UNL     1       5.003  -1.152  -0.607  0.00  0.00    +0.149 HD
ATOM     27  C   UNL     1       3.137  -1.226   0.155  0.00  0.00    +0.251 C 
ATOM     28  O   UNL     1       2.290  -1.956   0.635  0.00  0.00    -0.270 OA
BRANCH  25  29
ATOM     29  C   UNL     1       4.601  -3.163  -0.056  0.00  0.00    +0.132 C 
BRANCH  29  30
ATOM     30  C   UNL     1       6.012  -3.474  -0.561  0.00  0.00    +0.178 C 
BRANCH  30  32
ATOM     31  C   UNL     1       8.260  -3.135  -0.257  0.00  0.00    +0.194 C 
ATOM     32  O   UNL     1       6.970  -2.807   0.263  0.00  0.00    -0.381 OA
ENDBRANCH  30  32
ENDBRANCH  29  30
ENDBRANCH  25  29
ENDBRANCH   1  27
TORSDOF 7
