REMARK  Name = m333
REMARK  8 active torsions:
REMARK  status: ('A' for Active; 'I' for Inactive)
REMARK    1  A    between atoms: C_1  and  O_2
REMARK    2  A    between atoms: O_2  and  C_3
REMARK    3  A    between atoms: C_3  and  C_4
REMARK    4  A    between atoms: C_4  and  N_5
REMARK    5  A    between atoms: C_6  and  C_8
REMARK    6  A    between atoms: C_16  and  C_17
REMARK    7  A    between atoms: C_20  and  C_22
REMARK    8  A    between atoms: C_22  and  N_23
REMARK                            x       y       z     vdW  Elec       q    Type
REMARK                         _______ _______ _______ _____ _____    ______ ____
ROOT
ATOM      1  C   UNL     1       2.177   0.448  -0.049  0.00  0.00    +0.082 A 
ATOM      2  C   UNL     1       1.124   1.216   0.335  0.00  0.00    +0.011 A 
ATOM      3  C   UNL     1       1.187   2.612   0.191  0.00  0.00    +0.014 A 
ATOM      4  C   UNL     1       2.385   3.115  -0.374  0.00  0.00    +0.109 A 
ATOM      5  N   UNL     1       2.589   4.397  -0.575  0.00  0.00    -0.248 NA
ATOM      6  C   UNL     1       1.676   5.294  -0.257  0.00  0.00    +0.112 A 
ATOM      7  C   UNL     1       0.469   4.900   0.303  0.00  0.00    +0.020 A 
ATOM      8  C   UNL     1       0.207   3.581   0.532  0.00  0.00    +0.012 A 
ATOM      9  S   UNL     1       3.345   1.649  -0.662  0.00  0.00    -0.064 S 
ENDROOT
BRANCH   2  10
ATOM     10  C   UNL     1      -0.106   0.572   0.920  0.00  0.00    +0.167 C 
ATOM     11  O   UNL     1       0.282  -0.414   1.876  0.00  0.00    -0.369 OA
ATOM     12  C   UNL     1      -0.895  -0.851   2.553  0.00  0.00    +0.179 C 
ATOM     13  C   UNL     1      -1.780  -1.644   1.585  0.00  0.00    +0.136 C 
ATOM     14  N   UNL     1      -2.057  -0.793   0.415  0.00  0.00    -0.295 N 
ATOM     15  C   UNL     1      -3.306  -0.664  -0.076  0.00  0.00    +0.237 C 
ATOM     16  O   UNL     1      -3.508   0.043  -1.041  0.00  0.00    -0.274 OA
ATOM     17  C   UNL     1      -0.918  -0.090  -0.199  0.00  0.00    +0.144 C 
BRANCH  15  18
ATOM     18  C   UNL     1      -4.451  -1.397   0.575  0.00  0.00    +0.239 C 
BRANCH  18  19
ATOM     19  N   UNL     1      -5.694  -1.093  -0.139  0.00  0.00    -0.263 N 
ATOM     20  N   UNL     1      -6.212   0.185  -0.384  0.00  0.00    -0.179 NA
ATOM     21  C   UNL     1      -7.331   0.051  -1.049  0.00  0.00    +0.134 A 
ATOM     22  C   UNL     1      -7.565  -1.314  -1.241  0.00  0.00    +0.041 A 
ATOM     23  C   UNL     1      -6.544  -1.996  -0.672  0.00  0.00    +0.109 A 
ENDBRANCH  18  19
ENDBRANCH  15  18
ENDBRANCH   2  10
BRANCH   1  26
ATOM     24  N   UNL     1       3.447  -1.603  -0.421  0.00  0.00    -0.309 N 
ATOM     25  H   UNL     1       4.168  -1.063  -0.781  0.00  0.00    +0.149 HD
ATOM     26  C   UNL     1       2.317  -1.014   0.018  0.00  0.00    +0.251 C 
ATOM     27  O   UNL     1       1.414  -1.691   0.469  0.00  0.00    -0.270 OA
BRANCH  24  28
ATOM     28  C   UNL     1       3.587  -3.060  -0.354  0.00  0.00    +0.132 C 
BRANCH  28  29
ATOM     29  C   UNL     1       4.952  -3.468  -0.911  0.00  0.00    +0.178 C 
BRANCH  29  31
ATOM     30  C   UNL     1       7.228  -3.362  -0.639  0.00  0.00    +0.194 C 
ATOM     31  O   UNL     1       5.984  -2.950  -0.069  0.00  0.00    -0.381 OA
ENDBRANCH  29  31
ENDBRANCH  28  29
ENDBRANCH  24  28
ENDBRANCH   1  26
TORSDOF 7
