REMARK  Name = m334
REMARK  3 active torsions:
REMARK  status: ('A' for Active; 'I' for Inactive)
REMARK    1  A    between atoms: C_2  and  C_3
REMARK    2  A    between atoms: C_3  and  N_4
REMARK    3  A    between atoms: N_23  and  C_24
REMARK                            x       y       z     vdW  Elec       q    Type
REMARK                         _______ _______ _______ _____ _____    ______ ____
ROOT
ATOM      1  N   UNL     1       0.923  -0.309  -1.498  0.00  0.00    -0.203 N 
ATOM      2  C   UNL     1       1.567  -1.429  -1.109  0.00  0.00    +0.352 A 
ATOM      3  O   UNL     1       1.196  -2.574  -1.299  0.00  0.00    -0.244 OA
ATOM      4  N   UNL     1       2.694  -1.056  -0.475  0.00  0.00    -0.239 N 
ATOM      5  C   UNL     1       2.747   0.330  -0.463  0.00  0.00    +0.203 A 
ATOM      6  C   UNL     1       3.891   0.991   0.183  0.00  0.00    +0.167 A 
ATOM      7  N   UNL     1       4.838   0.270   0.735  0.00  0.00    -0.227 NA
ATOM      8  C   UNL     1       4.794  -1.089   0.727  0.00  0.00    +0.090 A 
ATOM      9  C   UNL     1       5.826  -1.820   1.327  0.00  0.00    +0.030 A 
ATOM     10  C   UNL     1       5.786  -3.197   1.322  0.00  0.00    +0.002 A 
ATOM     11  C   UNL     1       4.730  -3.866   0.726  0.00  0.00    +0.002 A 
ATOM     12  C   UNL     1       3.704  -3.160   0.129  0.00  0.00    +0.028 A 
ATOM     13  N   UNL     1       3.967   2.369   0.210  0.00  0.00    -0.312 N 
ATOM     14  C   UNL     1       2.981   3.296  -0.374  0.00  0.00    +0.106 C 
ATOM     15  C   UNL     1       3.159   4.615   0.423  0.00  0.00    +0.020 C 
ATOM     16  C   UNL     1       4.697   4.645   0.628  0.00  0.00    +0.020 C 
ATOM     17  C   UNL     1       5.050   3.155   0.819  0.00  0.00    +0.106 C 
ATOM     18  C   UNL     1       3.727  -1.773   0.125  0.00  0.00    +0.078 A 
ATOM     19  N   UNL     1       1.688   0.788  -1.075  0.00  0.00    -0.145 NA
ENDROOT
BRANCH   1  20
ATOM     20  C   UNL     1      -0.347  -0.249  -2.225  0.00  0.00    +0.244 C 
BRANCH  20  22
ATOM     21  O   UNL     1      -1.262  -0.234  -0.049  0.00  0.00    -0.273 OA
ATOM     22  C   UNL     1      -1.488  -0.212  -1.240  0.00  0.00    +0.239 C 
ATOM     23  N   UNL     1      -2.759  -0.161  -1.684  0.00  0.00    -0.284 N 
ATOM     24  H   UNL     1      -2.938  -0.063  -2.632  0.00  0.00    +0.155 HD
BRANCH  23  25
ATOM     25  C   UNL     1      -3.822  -0.248  -0.776  0.00  0.00    +0.037 A 
ATOM     26  C   UNL     1      -4.997   0.446  -1.011  0.00  0.00    +0.072 A 
ATOM     27  C   UNL     1      -6.062   0.361  -0.117  0.00  0.00    +0.164 A 
ATOM     28  O   UNL     1      -7.172   1.083  -0.421  0.00  0.00    -0.485 OA
ATOM     29  C   UNL     1      -8.274   0.566   0.318  0.00  0.00    +0.270 C 
ATOM     30  C   UNL     1      -7.865   0.486   1.793  0.00  0.00    +0.270 C 
ATOM     31  O   UNL     1      -6.929  -0.577   1.938  0.00  0.00    -0.485 OA
ATOM     32  C   UNL     1      -5.940  -0.421   1.018  0.00  0.00    +0.162 A 
ATOM     33  C   UNL     1      -4.751  -1.110   1.255  0.00  0.00    +0.051 A 
ATOM     34  C   UNL     1      -3.700  -1.027   0.367  0.00  0.00    +0.027 A 
ENDBRANCH  23  25
ENDBRANCH  20  22
ENDBRANCH   1  20
TORSDOF 3
