REMARK  Name = m335
REMARK  8 active torsions:
REMARK  status: ('A' for Active; 'I' for Inactive)
REMARK    1  A    between atoms: C_1  and  O_2
REMARK    2  A    between atoms: O_2  and  C_3
REMARK    3  A    between atoms: C_3  and  C_4
REMARK    4  A    between atoms: C_4  and  N_5
REMARK    5  A    between atoms: C_6  and  C_8
REMARK    6  A    between atoms: C_16  and  C_17
REMARK    7  A    between atoms: C_22  and  C_23
REMARK    8  A    between atoms: C_25  and  C_26
REMARK                            x       y       z     vdW  Elec       q    Type
REMARK                         _______ _______ _______ _____ _____    ______ ____
ROOT
ATOM      1  C   UNL     1       1.837   0.285   0.051  0.00  0.00    +0.082 A 
ATOM      2  C   UNL     1       1.122   1.391   0.386  0.00  0.00    +0.011 A 
ATOM      3  C   UNL     1       1.586   2.664   0.014  0.00  0.00    +0.014 A 
ATOM      4  C   UNL     1       2.801   2.683  -0.715  0.00  0.00    +0.109 A 
ATOM      5  N   UNL     1       3.358   3.795  -1.136  0.00  0.00    -0.248 NA
ATOM      6  C   UNL     1       2.805   4.969  -0.898  0.00  0.00    +0.112 A 
ATOM      7  C   UNL     1       1.614   5.055  -0.191  0.00  0.00    +0.020 A 
ATOM      8  C   UNL     1       0.996   3.930   0.268  0.00  0.00    +0.012 A 
ATOM      9  S   UNL     1       3.229   0.962  -0.835  0.00  0.00    -0.064 S 
ENDROOT
BRANCH   2  10
ATOM     10  C   UNL     1      -0.164   1.253   1.161  0.00  0.00    +0.167 C 
ATOM     11  O   UNL     1       0.025   0.330   2.233  0.00  0.00    -0.369 OA
ATOM     12  C   UNL     1      -1.193   0.294   2.977  0.00  0.00    +0.179 C 
ATOM     13  C   UNL     1      -2.322  -0.238   2.094  0.00  0.00    +0.136 C 
ATOM     14  N   UNL     1      -2.536   0.678   0.966  0.00  0.00    -0.295 N 
ATOM     15  C   UNL     1      -3.450   0.067   0.125  0.00  0.00    +0.218 A 
ATOM     16  N   UNL     1      -3.064  -0.311  -1.085  0.00  0.00    -0.220 NA
ATOM     17  C   UNL     1      -3.911  -0.903  -1.911  0.00  0.00    +0.044 A 
ATOM     18  C   UNL     1      -3.462  -1.335  -3.283  0.00  0.00    +0.066 C 
ATOM     19  C   UNL     1      -5.218  -1.115  -1.501  0.00  0.00    +0.046 A 
ATOM     20  C   UNL     1      -5.590  -0.702  -0.231  0.00  0.00    +0.044 A 
ATOM     21  C   UNL     1      -7.000  -0.911   0.257  0.00  0.00    +0.066 C 
ATOM     22  N   UNL     1      -4.692  -0.121   0.547  0.00  0.00    -0.220 NA
ATOM     23  C   UNL     1      -1.266   0.746   0.231  0.00  0.00    +0.144 C 
ENDBRANCH   2  10
BRANCH   1  26
ATOM     24  N   UNL     1       2.370  -2.094  -0.080  0.00  0.00    -0.309 N 
ATOM     25  H   UNL     1       3.170  -1.862  -0.577  0.00  0.00    +0.149 HD
ATOM     26  C   UNL     1       1.535  -1.124   0.343  0.00  0.00    +0.251 C 
ATOM     27  O   UNL     1       0.531  -1.414   0.967  0.00  0.00    -0.270 OA
BRANCH  24  28
ATOM     28  C   UNL     1       2.068  -3.497   0.211  0.00  0.00    +0.132 C 
BRANCH  28  29
ATOM     29  C   UNL     1       3.166  -4.387  -0.376  0.00  0.00    +0.178 C 
BRANCH  29  31
ATOM     30  C   UNL     1       5.383  -4.976  -0.300  0.00  0.00    +0.194 C 
ATOM     31  O   UNL     1       4.402  -4.120   0.289  0.00  0.00    -0.381 OA
ENDBRANCH  29  31
ENDBRANCH  28  29
ENDBRANCH  24  28
ENDBRANCH   1  26
TORSDOF 5
