REMARK  Name = m336
REMARK  7 active torsions:
REMARK  status: ('A' for Active; 'I' for Inactive)
REMARK    1  A    between atoms: C_1  and  C_2
REMARK    2  A    between atoms: N_4  and  C_5
REMARK    3  A    between atoms: C_6  and  C_7
REMARK    4  A    between atoms: C_8  and  N_9
REMARK    5  A    between atoms: C_10  and  C_12
REMARK    6  A    between atoms: C_16  and  C_17
REMARK    7  A    between atoms: C_27  and  C_28
REMARK                            x       y       z     vdW  Elec       q    Type
REMARK                         _______ _______ _______ _____ _____    ______ ____
ROOT
ATOM      1  C   UNL     1       0.688   0.303   0.093  0.00  0.00    +0.080 A 
ATOM      2  C   UNL     1      -0.253   1.273  -0.091  0.00  0.00    -0.017 A 
ATOM      3  C   UNL     1       0.169   2.705  -0.294  0.00  0.00    +0.046 C 
ATOM      4  C   UNL     1      -1.608   0.936  -0.096  0.00  0.00    +0.076 A 
ATOM      5  C   UNL     1      -1.902  -0.434   0.109  0.00  0.00    +0.117 A 
ATOM      6  N   UNL     1      -3.143  -0.889   0.134  0.00  0.00    -0.219 NA
ATOM      7  C   UNL     1      -4.176  -0.085  -0.034  0.00  0.00    +0.178 A 
ATOM      8  N   UNL     1      -4.013   1.259  -0.239  0.00  0.00    -0.304 N 
ATOM      9  H   UNL     1      -4.794   1.821  -0.358  0.00  0.00    +0.170 HD
ATOM     10  C   UNL     1      -2.786   1.813  -0.280  0.00  0.00    +0.260 A 
ATOM     11  O   UNL     1      -2.649   3.010  -0.464  0.00  0.00    -0.267 OA
ATOM     12  S   UNL     1      -0.297  -1.172   0.289  0.00  0.00    -0.064 S 
ENDROOT
BRANCH   7  13
ATOM     13  C   UNL     1      -5.531  -0.644   0.003  0.00  0.00    +0.170 A 
ATOM     14  O   UNL     1      -6.679   0.049  -0.145  0.00  0.00    -0.460 OA
ATOM     15  C   UNL     1      -7.720  -0.791  -0.057  0.00  0.00    +0.196 A 
ATOM     16  C   UNL     1      -7.254  -2.040   0.158  0.00  0.00    +0.042 A 
ATOM     17  C   UNL     1      -5.853  -1.957   0.198  0.00  0.00    +0.053 A 
ENDBRANCH   7  13
BRANCH   1  20
ATOM     18  N   UNL     1       2.920  -0.646   0.331  0.00  0.00    -0.278 N 
ATOM     19  H   UNL     1       2.511  -1.504   0.527  0.00  0.00    +0.155 HD
ATOM     20  C   UNL     1       2.147   0.439   0.129  0.00  0.00    +0.255 C 
ATOM     21  O   UNL     1       2.660   1.532  -0.024  0.00  0.00    -0.269 OA
BRANCH  18  24
ATOM     22  C   UNL     1       4.748   0.247   2.689  0.00  0.00    +0.069 C 
ATOM     23  C   UNL     1       5.174  -0.135   1.295  0.00  0.00    +0.081 A 
ATOM     24  C   UNL     1       4.321  -0.535   0.257  0.00  0.00    +0.077 A 
ATOM     25  C   UNL     1       5.086  -0.788  -0.836  0.00  0.00    +0.057 A 
ATOM     26  C   UNL     1       4.590  -1.242  -2.185  0.00  0.00    +0.067 C 
ATOM     27  N   UNL     1       6.380  -0.563  -0.491  0.00  0.00    -0.270 N 
ATOM     28  C   UNL     1       7.546  -0.719  -1.365  0.00  0.00    +0.172 C 
ATOM     29  N   UNL     1       6.404  -0.155   0.849  0.00  0.00    -0.175 NA
ENDBRANCH  18  24
ENDBRANCH   1  20
TORSDOF 3
