REMARK  Name = m337
REMARK  8 active torsions:
REMARK  status: ('A' for Active; 'I' for Inactive)
REMARK    1  A    between atoms: C_1  and  O_2
REMARK    2  A    between atoms: O_2  and  C_3
REMARK    3  A    between atoms: C_3  and  C_4
REMARK    4  A    between atoms: C_4  and  N_5
REMARK    5  A    between atoms: C_6  and  C_8
REMARK    6  A    between atoms: C_16  and  C_17
REMARK    7  A    between atoms: C_20  and  C_22
REMARK    8  A    between atoms: N_25  and  C_26
REMARK                            x       y       z     vdW  Elec       q    Type
REMARK                         _______ _______ _______ _____ _____    ______ ____
ROOT
ATOM      1  C   UNL     1       1.680   0.652   0.096  0.00  0.00    +0.082 A 
ATOM      2  C   UNL     1       0.509   1.045   0.663  0.00  0.00    +0.011 A 
ATOM      3  C   UNL     1       0.136   2.400   0.631  0.00  0.00    +0.014 A 
ATOM      4  C   UNL     1       1.043   3.268  -0.024  0.00  0.00    +0.109 A 
ATOM      5  N   UNL     1       0.829   4.559  -0.140  0.00  0.00    -0.248 NA
ATOM      6  C   UNL     1      -0.257   5.120   0.357  0.00  0.00    +0.112 A 
ATOM      7  C   UNL     1      -1.205   4.352   1.017  0.00  0.00    +0.020 A 
ATOM      8  C   UNL     1      -1.031   3.008   1.164  0.00  0.00    +0.012 A 
ATOM      9  S   UNL     1       2.346   2.179  -0.545  0.00  0.00    -0.064 S 
ENDROOT
BRANCH   2  10
ATOM     10  C   UNL     1      -0.384   0.032   1.332  0.00  0.00    +0.167 C 
ATOM     11  O   UNL     1       0.406  -0.831   2.150  0.00  0.00    -0.369 OA
ATOM     12  C   UNL     1      -0.486  -1.636   2.919  0.00  0.00    +0.179 C 
ATOM     13  C   UNL     1      -1.219  -2.616   1.997  0.00  0.00    +0.136 C 
ATOM     14  N   UNL     1      -1.893  -1.838   0.943  0.00  0.00    -0.292 N 
ATOM     15  C   UNL     1      -3.178  -2.073   0.613  0.00  0.00    +0.250 C 
ATOM     16  O   UNL     1      -3.841  -2.853   1.269  0.00  0.00    -0.270 OA
ATOM     17  C   UNL     1      -1.107  -0.795   0.263  0.00  0.00    +0.144 C 
BRANCH  15  18
ATOM     18  C   UNL     1      -3.781  -1.384  -0.542  0.00  0.00    +0.074 A 
ATOM     19  C   UNL     1      -5.079  -0.925  -0.637  0.00  0.00    +0.121 A 
ATOM     20  N   UNL     1      -5.218  -0.359  -1.847  0.00  0.00    -0.274 N 
ATOM     21  C   UNL     1      -6.439   0.262  -2.367  0.00  0.00    +0.172 C 
ATOM     22  N   UNL     1      -4.001  -0.467  -2.530  0.00  0.00    -0.179 NA
ATOM     23  C   UNL     1      -3.139  -1.075  -1.763  0.00  0.00    +0.147 A 
ENDBRANCH  15  18
ENDBRANCH   2  10
BRANCH   1  26
ATOM     24  N   UNL     1       3.437  -0.896  -0.591  0.00  0.00    -0.309 N 
ATOM     25  H   UNL     1       3.910  -0.146  -0.986  0.00  0.00    +0.149 HD
ATOM     26  C   UNL     1       2.255  -0.699   0.024  0.00  0.00    +0.251 C 
ATOM     27  O   UNL     1       1.662  -1.639   0.518  0.00  0.00    -0.270 OA
BRANCH  24  28
ATOM     28  C   UNL     1       4.010  -2.243  -0.664  0.00  0.00    +0.132 C 
BRANCH  28  29
ATOM     29  C   UNL     1       5.345  -2.190  -1.408  0.00  0.00    +0.178 C 
BRANCH  29  31
ATOM     30  C   UNL     1       7.503  -1.409  -1.394  0.00  0.00    +0.194 C 
ATOM     31  O   UNL     1       6.282  -1.421  -0.651  0.00  0.00    -0.381 OA
ENDBRANCH  29  31
ENDBRANCH  28  29
ENDBRANCH  24  28
ENDBRANCH   1  26
TORSDOF 6
