REMARK  Name = m338
REMARK  12 active torsions:
REMARK  status: ('A' for Active; 'I' for Inactive)
REMARK    1  A    between atoms: C_1  and  C_2
REMARK    2  A    between atoms: C_2  and  N_3
REMARK    3  A    between atoms: C_4  and  S_5
REMARK    4  A    between atoms: S_5  and  C_6
REMARK    5  A    between atoms: C_6  and  C_7
REMARK    6  A    between atoms: C_9  and  C_10
REMARK    7  A    between atoms: C_15  and  C_16
REMARK    8  A    between atoms: C_18  and  C_19
REMARK    9  A    between atoms: C_24  and  C_25
REMARK   10  A    between atoms: C_25  and  O_27
REMARK   11  A    between atoms: O_27  and  C_28
REMARK   12  A    between atoms: C_30  and  C_31
REMARK                            x       y       z     vdW  Elec       q    Type
REMARK                         _______ _______ _______ _____ _____    ______ ____
ROOT
ATOM      1  N   UNL     1       2.028   1.533  -0.292  0.00  0.00    -0.305 N 
ATOM      2  C   UNL     1       3.375   1.240  -0.379  0.00  0.00    +0.149 A 
ATOM      3  C   UNL     1       3.789  -0.071  -0.093  0.00  0.00    +0.098 A 
ATOM      4  C   UNL     1       5.153  -0.397  -0.167  0.00  0.00    +0.077 A 
ATOM      5  C   UNL     1       6.042   0.620  -0.521  0.00  0.00    +0.039 A 
ATOM      6  C   UNL     1       5.551   1.890  -0.782  0.00  0.00    +0.041 A 
ATOM      7  C   UNL     1       6.513   2.985  -1.164  0.00  0.00    +0.065 C 
ATOM      8  C   UNL     1       2.765  -1.067   0.272  0.00  0.00    +0.284 A 
ATOM      9  O   UNL     1       3.075  -2.220   0.523  0.00  0.00    -0.265 OA
ATOM     10  N   UNL     1       1.484  -0.674   0.320  0.00  0.00    -0.184 NA
ATOM     11  N   UNL     1       4.265   2.163  -0.704  0.00  0.00    -0.234 NA
ATOM     12  C   UNL     1       1.134   0.567   0.050  0.00  0.00    +0.174 A 
ENDROOT
BRANCH   1  14
ATOM     13  C   UNL     1       1.553   3.710   0.715  0.00  0.00    +0.027 C 
ATOM     14  C   UNL     1       1.559   2.891  -0.578  0.00  0.00    +0.122 C 
ENDBRANCH   1  14
BRANCH   4  15
ATOM     15  C   UNL     1       5.631  -1.768   0.121  0.00  0.00    +0.340 C 
ATOM     16  O   UNL     1       5.310  -2.319   1.154  0.00  0.00    -0.245 OA
BRANCH  15  17
ATOM     17  O   UNL     1       6.421  -2.405  -0.765  0.00  0.00    -0.464 OA
ATOM     18  C   UNL     1       6.890  -3.750  -0.483  0.00  0.00    +0.280 C 
ENDBRANCH  15  17
ENDBRANCH   4  15
BRANCH  12  19
ATOM     19  S   UNL     1      -0.573   0.995   0.137  0.00  0.00    -0.081 S 
BRANCH  19  20
ATOM     20  C   UNL     1      -1.274  -0.603   0.615  0.00  0.00    +0.136 C 
BRANCH  20  21
ATOM     21  C   UNL     1      -2.770  -0.475   0.752  0.00  0.00    +0.093 A 
ATOM     22  C   UNL     1      -3.437  -0.151   1.875  0.00  0.00    +0.127 A 
ATOM     23  C   UNL     1      -2.829   0.155   3.219  0.00  0.00    +0.088 C 
ATOM     24  O   UNL     1      -4.750  -0.142   1.571  0.00  0.00    -0.440 OA
ATOM     25  C   UNL     1      -4.871  -0.468   0.272  0.00  0.00    +0.228 A 
ATOM     26  N   UNL     1      -3.672  -0.669  -0.221  0.00  0.00    -0.213 NA
BRANCH  25  27
ATOM     27  C   UNL     1      -6.142  -0.582  -0.474  0.00  0.00    +0.040 A 
ATOM     28  C   UNL     1      -7.115   0.412  -0.357  0.00  0.00    -0.038 A 
ATOM     29  C   UNL     1      -6.870   1.608   0.527  0.00  0.00    +0.044 C 
ATOM     30  C   UNL     1      -8.297   0.302  -1.061  0.00  0.00    +0.004 A 
ATOM     31  C   UNL     1      -8.523  -0.795  -1.873  0.00  0.00    +0.000 A 
ATOM     32  C   UNL     1      -7.565  -1.786  -1.989  0.00  0.00    +0.001 A 
ATOM     33  C   UNL     1      -6.377  -1.686  -1.295  0.00  0.00    +0.013 A 
ENDBRANCH  25  27
ENDBRANCH  20  21
ENDBRANCH  19  20
ENDBRANCH  12  19
TORSDOF 7
