REMARK  Name = m339
REMARK  6 active torsions:
REMARK  status: ('A' for Active; 'I' for Inactive)
REMARK    1  A    between atoms: C_1  and  C_2
REMARK    2  A    between atoms: C_2  and  N_3
REMARK    3  A    between atoms: C_6  and  C_7
REMARK    4  A    between atoms: C_10  and  C_11
REMARK    5  A    between atoms: N_16  and  C_17
REMARK    6  A    between atoms: N_27  and  C_28
REMARK                            x       y       z     vdW  Elec       q    Type
REMARK                         _______ _______ _______ _____ _____    ______ ____
ROOT
ATOM      1  C   UNL     1       0.830   0.688   0.408  0.00  0.00    +0.228 A 
ATOM      2  N   UNL     1       0.246  -0.515   0.584  0.00  0.00    -0.182 NA
ATOM      3  C   UNL     1      -1.027  -0.261   0.806  0.00  0.00    +0.314 A 
ATOM      4  O   UNL     1      -1.175   1.072   0.750  0.00  0.00    -0.328 OA
ATOM      5  N   UNL     1      -0.106   1.597   0.522  0.00  0.00    -0.054 NA
ENDROOT
BRANCH   1  11
ATOM      6  N   UNL     1       4.080   2.498  -0.297  0.00  0.00    -0.258 N 
ATOM      7  C   UNL     1       4.910   1.443  -0.389  0.00  0.00    +0.353 A 
ATOM      8  O   UNL     1       6.090   1.630  -0.617  0.00  0.00    -0.244 OA
ATOM      9  N   UNL     1       4.461   0.187  -0.224  0.00  0.00    -0.181 N 
ATOM     10  N   UNL     1       3.110  -0.067   0.039  0.00  0.00    -0.153 NA
ATOM     11  C   UNL     1       2.265   0.935   0.131  0.00  0.00    +0.196 A 
ATOM     12  C   UNL     1       2.768   2.308  -0.046  0.00  0.00    +0.286 A 
ATOM     13  O   UNL     1       2.011   3.257   0.034  0.00  0.00    -0.265 OA
BRANCH   9  14
ATOM     14  C   UNL     1       5.357  -0.884  -0.322  0.00  0.00    +0.071 A 
ATOM     15  C   UNL     1       6.631  -0.777   0.221  0.00  0.00    +0.031 A 
ATOM     16  C   UNL     1       7.512  -1.837   0.129  0.00  0.00    +0.040 A 
ATOM     17  C   UNL     1       7.129  -3.002  -0.514  0.00  0.00    +0.124 A 
ATOM     18  F   UNL     1       7.994  -4.036  -0.608  0.00  0.00    -0.205 F 
ATOM     19  C   UNL     1       5.861  -3.109  -1.062  0.00  0.00    +0.040 A 
ATOM     20  C   UNL     1       4.976  -2.054  -0.967  0.00  0.00    +0.031 A 
ENDBRANCH   9  14
BRANCH   6  22
ATOM     21  C   UNL     1       5.040   4.417   0.877  0.00  0.00    +0.027 C 
ATOM     22  C   UNL     1       4.600   3.856  -0.477  0.00  0.00    +0.127 C 
ENDBRANCH   6  22
ENDBRANCH   1  11
BRANCH   3  23
ATOM     23  C   UNL     1      -2.094  -1.258   1.063  0.00  0.00    +0.304 C 
ATOM     24  N   UNL     1      -3.381  -0.864   1.129  0.00  0.00    -0.291 N 
ATOM     25  C   UNL     1      -4.442  -1.802   1.533  0.00  0.00    +0.123 C 
ATOM     26  C   UNL     1      -5.582  -1.713   0.520  0.00  0.00    +0.103 C 
ATOM     27  N   UNL     1      -6.045  -0.324   0.418  0.00  0.00    -0.296 NA
ATOM     28  C   UNL     1      -4.955   0.459  -0.178  0.00  0.00    +0.103 C 
ATOM     29  C   UNL     1      -3.773   0.514   0.794  0.00  0.00    +0.123 C 
ATOM     30  O   UNL     1      -1.808  -2.429   1.214  0.00  0.00    -0.265 OA
BRANCH  27  31
ATOM     31  C   UNL     1      -7.149  -0.316  -0.551  0.00  0.00    +0.057 C 
ATOM     32  C   UNL     1      -7.591   1.125  -0.809  0.00  0.00    +0.019 C 
ATOM     33  C   UNL     1      -8.741   1.133  -1.818  0.00  0.00    +0.002 C 
ATOM     34  C   UNL     1      -9.917   0.330  -1.258  0.00  0.00    +0.000 C 
ATOM     35  C   UNL     1      -9.474  -1.111  -1.000  0.00  0.00    +0.002 C 
ATOM     36  C   UNL     1      -8.325  -1.119   0.009  0.00  0.00    +0.019 C 
ENDBRANCH  27  31
ENDBRANCH   3  23
TORSDOF 5
