REMARK  Name = m340
REMARK  6 active torsions:
REMARK  status: ('A' for Active; 'I' for Inactive)
REMARK    1  A    between atoms: C_1  and  C_2
REMARK    2  A    between atoms: C_2  and  O_3
REMARK    3  A    between atoms: O_3  and  C_4
REMARK    4  A    between atoms: C_9  and  N_10
REMARK    5  A    between atoms: C_11  and  C_13
REMARK    6  A    between atoms: C_13  and  N_14
REMARK                            x       y       z     vdW  Elec       q    Type
REMARK                         _______ _______ _______ _____ _____    ______ ____
ROOT
ATOM      1  N   UNL     1      -0.157   0.342  -1.065  0.00  0.00    -0.203 N 
ATOM      2  C   UNL     1      -0.698   1.551  -0.809  0.00  0.00    +0.352 A 
ATOM      3  O   UNL     1      -0.154   2.629  -0.968  0.00  0.00    -0.244 OA
ATOM      4  N   UNL     1      -1.946   1.353  -0.349  0.00  0.00    -0.239 N 
ATOM      5  C   UNL     1      -2.184  -0.013  -0.310  0.00  0.00    +0.203 A 
ATOM      6  C   UNL     1      -3.490  -0.493   0.167  0.00  0.00    +0.167 A 
ATOM      7  N   UNL     1      -4.405   0.365   0.546  0.00  0.00    -0.227 NA
ATOM      8  C   UNL     1      -4.181   1.707   0.511  0.00  0.00    +0.090 A 
ATOM      9  C   UNL     1      -5.186   2.589   0.925  0.00  0.00    +0.030 A 
ATOM     10  C   UNL     1      -4.964   3.948   0.891  0.00  0.00    +0.002 A 
ATOM     11  C   UNL     1      -3.751   4.450   0.449  0.00  0.00    +0.002 A 
ATOM     12  C   UNL     1      -2.749   3.593   0.038  0.00  0.00    +0.028 A 
ATOM     13  N   UNL     1      -3.751  -1.848   0.215  0.00  0.00    -0.308 N 
ATOM     14  C   UNL     1      -2.745  -2.837  -0.209  0.00  0.00    +0.134 C 
ATOM     15  C   UNL     1      -3.425  -3.855  -1.124  0.00  0.00    +0.178 C 
ATOM     16  O   UNL     1      -4.544  -4.433  -0.452  0.00  0.00    -0.377 OA
ATOM     17  C   UNL     1      -5.536  -3.418  -0.308  0.00  0.00    +0.178 C 
ATOM     18  C   UNL     1      -5.049  -2.360   0.688  0.00  0.00    +0.134 C 
ATOM     19  C   UNL     1      -2.955   2.221   0.065  0.00  0.00    +0.078 A 
ATOM     20  N   UNL     1      -1.115  -0.629  -0.738  0.00  0.00    -0.145 NA
ENDROOT
BRANCH   1  21
ATOM     21  C   UNL     1       1.189   0.088  -1.583  0.00  0.00    +0.244 C 
BRANCH  21  24
ATOM     22  N   UNL     1       3.458  -0.286  -0.672  0.00  0.00    -0.281 N 
ATOM     23  H   UNL     1       3.793  -0.286  -1.583  0.00  0.00    +0.155 HD
ATOM     24  C   UNL     1       2.154  -0.049  -0.433  0.00  0.00    +0.239 C 
ATOM     25  O   UNL     1       1.755   0.056   0.708  0.00  0.00    -0.273 OA
BRANCH  22  27
ATOM     26  C   UNL     1       5.696  -0.285   0.253  0.00  0.00    +0.142 A 
ATOM     27  C   UNL     1       4.332  -0.534   0.395  0.00  0.00    +0.076 A 
ATOM     28  C   UNL     1       3.844  -1.038   1.591  0.00  0.00    +0.027 A 
ATOM     29  C   UNL     1       4.707  -1.282   2.642  0.00  0.00    +0.002 A 
ATOM     30  C   UNL     1       6.060  -1.029   2.503  0.00  0.00    +0.004 A 
ATOM     31  C   UNL     1       6.555  -0.532   1.311  0.00  0.00    +0.047 A 
BRANCH  26  32
ATOM     32  O   UNL     1       6.181   0.204  -0.919  0.00  0.00    -0.490 OA
BRANCH  32  34
ATOM     33  C   UNL     1       8.203   0.906  -2.041  0.00  0.00    +0.048 C 
ATOM     34  C   UNL     1       7.592   0.356  -0.751  0.00  0.00    +0.226 C 
ENDBRANCH  32  34
ENDBRANCH  26  32
ENDBRANCH  22  27
ENDBRANCH  21  24
ENDBRANCH   1  21
TORSDOF 5
