REMARK  Name = m342
REMARK  10 active torsions:
REMARK  status: ('A' for Active; 'I' for Inactive)
REMARK    1  A    between atoms: C_1  and  O_2
REMARK    2  A    between atoms: O_2  and  C_3
REMARK    3  A    between atoms: N_8  and  C_9
REMARK    4  A    between atoms: C_9  and  C_10
REMARK    5  A    between atoms: C_13  and  C_14
REMARK    6  A    between atoms: N_26  and  C_27
REMARK    7  A    between atoms: C_27  and  C_28
REMARK    8  A    between atoms: N_30  and  C_31
REMARK    9  A    between atoms: C_38  and  O_39
REMARK   10  A    between atoms: O_39  and  C_40
REMARK                            x       y       z     vdW  Elec       q    Type
REMARK                         _______ _______ _______ _____ _____    ______ ____
ROOT
ATOM      1  C   UNL     1       3.453   3.185  -1.284  0.00  0.00    +0.162 A 
ATOM      2  C   UNL     1       4.165   1.984  -1.250  0.00  0.00    +0.163 A 
ATOM      3  C   UNL     1       3.795   0.972  -0.378  0.00  0.00    +0.076 A 
ATOM      4  C   UNL     1       2.705   1.148   0.458  0.00  0.00    +0.063 A 
ATOM      5  C   UNL     1       1.984   2.356   0.420  0.00  0.00    +0.067 A 
ATOM      6  C   UNL     1       0.832   2.507   1.323  0.00  0.00    +0.265 A 
ATOM      7  N   UNL     1       0.522   1.480   2.144  0.00  0.00    -0.256 N 
ATOM      8  C   UNL     1       1.239   0.346   2.145  0.00  0.00    +0.333 A 
ATOM      9  O   UNL     1       0.916  -0.547   2.904  0.00  0.00    -0.246 OA
ATOM     10  O   UNL     1       0.174   3.530   1.329  0.00  0.00    -0.267 OA
ATOM     11  N   UNL     1       2.300   0.156   1.341  0.00  0.00    -0.284 N 
ATOM     12  C   UNL     1       2.365   3.372  -0.456  0.00  0.00    +0.064 A 
ENDROOT
BRANCH   1  14
ATOM     13  C   UNL     1       2.919   5.256  -1.950  0.00  0.00    +0.277 C 
ATOM     14  O   UNL     1       3.831   4.172  -2.141  0.00  0.00    -0.491 OA
ENDBRANCH   1  14
BRANCH   2  15
ATOM     15  O   UNL     1       5.234   1.810  -2.069  0.00  0.00    -0.491 OA
ATOM     16  C   UNL     1       5.753   0.506  -1.799  0.00  0.00    +0.277 C 
ENDBRANCH   2  15
BRANCH   7  17
ATOM     17  C   UNL     1      -0.621   1.607   3.052  0.00  0.00    +0.165 C 
BRANCH  17  18
ATOM     18  C   UNL     1      -1.866   1.109   2.365  0.00  0.00    -0.027 A 
ATOM     19  C   UNL     1      -2.649   1.988   1.636  0.00  0.00    +0.006 A 
ATOM     20  C   UNL     1      -3.787   1.537   1.000  0.00  0.00    +0.013 A 
ATOM     21  C   UNL     1      -4.155   0.195   1.102  0.00  0.00    +0.037 A 
ATOM     22  C   UNL     1      -3.364  -0.685   1.843  0.00  0.00    +0.013 A 
ATOM     23  C   UNL     1      -2.225  -0.223   2.470  0.00  0.00    +0.006 A 
BRANCH  21  24
ATOM     24  C   UNL     1      -5.377  -0.294   0.428  0.00  0.00    +0.247 C 
ATOM     25  N   UNL     1      -5.677   0.132  -0.815  0.00  0.00    -0.298 N 
ATOM     26  C   UNL     1      -6.951  -0.237  -1.446  0.00  0.00    +0.108 C 
ATOM     27  C   UNL     1      -6.668  -0.872  -2.806  0.00  0.00    +0.019 C 
ATOM     28  C   UNL     1      -5.806   0.077  -3.640  0.00  0.00    +0.003 C 
ATOM     29  C   UNL     1      -4.471   0.315  -2.929  0.00  0.00    +0.019 C 
ATOM     30  C   UNL     1      -4.732   0.968  -1.568  0.00  0.00    +0.108 C 
ATOM     31  O   UNL     1      -6.111  -1.079   0.995  0.00  0.00    -0.270 OA
ENDBRANCH  21  24
ENDBRANCH  17  18
ENDBRANCH   7  17
BRANCH  11  32
ATOM     32  C   UNL     1       3.036  -1.110   1.398  0.00  0.00    +0.222 C 
BRANCH  32  33
ATOM     33  C   UNL     1       2.434  -2.085   0.419  0.00  0.00    +0.233 C 
ATOM     34  N   UNL     1       2.951  -3.323   0.297  0.00  0.00    -0.311 N 
ATOM     35  H   UNL     1       3.711  -3.587   0.840  0.00  0.00    +0.149 HD
ATOM     36  O   UNL     1       1.485  -1.755  -0.260  0.00  0.00    -0.274 OA
BRANCH  34  37
ATOM     37  C   UNL     1       2.367  -4.271  -0.655  0.00  0.00    +0.073 C 
ATOM     38  C   UNL     1       1.218  -5.053   0.015  0.00  0.00    +0.022 C 
ATOM     39  C   UNL     1       1.340  -6.482  -0.569  0.00  0.00    +0.002 C 
ATOM     40  C   UNL     1       2.873  -6.689  -0.648  0.00  0.00    +0.002 C 
ATOM     41  C   UNL     1       3.419  -5.312  -1.077  0.00  0.00    +0.022 C 
ENDBRANCH  34  37
ENDBRANCH  32  33
ENDBRANCH  11  32
TORSDOF 8
