REMARK  Name = m343
REMARK  8 active torsions:
REMARK  status: ('A' for Active; 'I' for Inactive)
REMARK    1  A    between atoms: C_1  and  C_2
REMARK    2  A    between atoms: C_4  and  C_5
REMARK    3  A    between atoms: C_6  and  S_7
REMARK    4  A    between atoms: S_7  and  N_10
REMARK    5  A    between atoms: N_10  and  C_11
REMARK    6  A    between atoms: C_11  and  C_12
REMARK    7  A    between atoms: C_17  and  C_18
REMARK    8  A    between atoms: C_20  and  C_21
REMARK                            x       y       z     vdW  Elec       q    Type
REMARK                         _______ _______ _______ _____ _____    ______ ____
ROOT
ATOM      1  C   UNL     1       2.301   2.929   1.863  0.00  0.00    +0.052 C 
ATOM      2  C   UNL     1       1.080   2.722   1.003  0.00  0.00    -0.002 A 
ATOM      3  C   UNL     1       0.708   1.616   0.289  0.00  0.00    +0.040 A 
ATOM      4  C   UNL     1      -0.480   1.664  -0.435  0.00  0.00    +0.125 A 
ATOM      5  C   UNL     1      -1.216   2.798  -0.416  0.00  0.00    +0.014 A 
ATOM      6  C   UNL     1      -2.518   3.092  -1.114  0.00  0.00    +0.053 C 
ATOM      7  S   UNL     1      -0.250   3.857   0.647  0.00  0.00    -0.096 S 
ENDROOT
BRANCH   3   8
ATOM      8  C   UNL     1       1.544   0.392   0.295  0.00  0.00    +0.117 A 
ATOM      9  N   UNL     1       1.147  -0.833   0.543  0.00  0.00    -0.078 NA
ATOM     10  O   UNL     1       2.064  -1.617   0.469  0.00  0.00    -0.350 OA
ATOM     11  C   UNL     1       3.219  -1.008   0.165  0.00  0.00    +0.240 A 
ATOM     12  C   UNL     1       2.942   0.309   0.039  0.00  0.00    +0.085 A 
BRANCH  11  13
ATOM     13  C   UNL     1       4.565  -1.664  -0.002  0.00  0.00    +0.453 C 
ATOM     14  F   UNL     1       5.327  -0.937  -0.923  0.00  0.00    -0.163 F 
ATOM     15  F   UNL     1       4.392  -2.971  -0.469  0.00  0.00    -0.163 F 
ATOM     16  F   UNL     1       5.226  -1.693   1.230  0.00  0.00    -0.163 F 
ENDBRANCH  11  13
ENDBRANCH   3   8
BRANCH   4  17
ATOM     17  S   UNL     1      -1.015   0.268  -1.368  0.00  0.00    +0.060 S 
ATOM     18  O   UNL     1       0.172  -0.395  -1.785  0.00  0.00    -0.153 OA
ATOM     19  O   UNL     1      -2.035   0.749  -2.232  0.00  0.00    -0.153 OA
BRANCH  17  20
ATOM     20  N   UNL     1      -1.765  -0.771  -0.319  0.00  0.00    -0.187 NA
ATOM     21  H   UNL     1      -1.382  -1.645  -0.145  0.00  0.00    +0.148 HD
BRANCH  20  22
ATOM     22  C   UNL     1      -3.008  -0.370   0.345  0.00  0.00    +0.137 C 
BRANCH  22  23
ATOM     23  C   UNL     1      -3.685  -1.603   0.947  0.00  0.00    +0.134 C 
ATOM     24  O   UNL     1      -4.032  -2.529  -0.097  0.00  0.00    -0.375 OA
ATOM     25  C   UNL     1      -5.262  -3.172   0.302  0.00  0.00    +0.160 C 
ATOM     26  C   UNL     1      -6.087  -2.018   0.927  0.00  0.00    +0.031 C 
ATOM     27  C   UNL     1      -4.994  -1.192   1.648  0.00  0.00    +0.035 C 
ENDBRANCH  22  23
ENDBRANCH  20  22
ENDBRANCH  17  20
ENDBRANCH   4  17
TORSDOF 6
