REMARK  Name = m344
REMARK  13 active torsions:
REMARK  status: ('A' for Active; 'I' for Inactive)
REMARK    1  A    between atoms: C_1  and  C_2
REMARK    2  A    between atoms: C_2  and  O_3
REMARK    3  A    between atoms: O_3  and  C_4
REMARK    4  A    between atoms: C_4  and  C_6
REMARK    5  A    between atoms: C_8  and  N_9
REMARK    6  A    between atoms: C_10  and  C_12
REMARK    7  A    between atoms: C_14  and  C_15
REMARK    8  A    between atoms: C_20  and  O_21
REMARK    9  A    between atoms: C_24  and  C_25
REMARK   10  A    between atoms: C_25  and  O_27
REMARK   11  A    between atoms: O_27  and  C_28
REMARK   12  A    between atoms: C_28  and  C_29
REMARK   13  A    between atoms: C_30  and  C_31
REMARK                            x       y       z     vdW  Elec       q    Type
REMARK                         _______ _______ _______ _____ _____    ______ ____
ROOT
ATOM      1  N   UNL     1       0.157  -0.583  -0.132  0.00  0.00    -0.274 N 
ATOM      2  H   UNL     1      -0.139  -1.502  -0.227  0.00  0.00    +0.156 HD
ATOM      3  C   UNL     1      -0.748   0.405   0.013  0.00  0.00    +0.270 C 
ATOM      4  O   UNL     1      -0.377   1.556   0.132  0.00  0.00    -0.268 OA
ENDROOT
BRANCH   1   9
ATOM      5  C   UNL     1       3.974   0.738  -0.116  0.00  0.00    +0.102 A 
ATOM      6  C   UNL     1       3.863  -0.618  -0.273  0.00  0.00    -0.014 A 
ATOM      7  C   UNL     1       5.084  -1.489  -0.417  0.00  0.00    +0.046 C 
ATOM      8  C   UNL     1       2.588  -1.163  -0.285  0.00  0.00    +0.091 A 
ATOM      9  C   UNL     1       1.505  -0.287  -0.146  0.00  0.00    +0.087 A 
ATOM     10  S   UNL     1       2.273   1.259   0.004  0.00  0.00    -0.066 S 
BRANCH   5  11
ATOM     11  C   UNL     1       5.185   1.555  -0.066  0.00  0.00    +0.346 C 
ATOM     12  O   UNL     1       6.278   1.030  -0.165  0.00  0.00    -0.244 OA
BRANCH  11  13
ATOM     13  O   UNL     1       5.091   2.892   0.090  0.00  0.00    -0.461 OA
BRANCH  13  15
ATOM     14  C   UNL     1       6.390   4.921   0.276  0.00  0.00    +0.048 C 
ATOM     15  C   UNL     1       6.426   3.402   0.101  0.00  0.00    +0.229 C 
ENDBRANCH  13  15
ENDBRANCH  11  13
ENDBRANCH   5  11
BRANCH   8  16
ATOM     16  C   UNL     1       2.381  -2.607  -0.443  0.00  0.00    +0.342 C 
ATOM     17  O   UNL     1       2.258  -3.085  -1.554  0.00  0.00    -0.245 OA
BRANCH  16  18
ATOM     18  O   UNL     1       2.328  -3.403   0.644  0.00  0.00    -0.461 OA
BRANCH  18  19
ATOM     19  C   UNL     1       2.123  -4.832   0.488  0.00  0.00    +0.229 C 
ATOM     20  C   UNL     1       2.103  -5.498   1.865  0.00  0.00    +0.048 C 
ENDBRANCH  18  19
ENDBRANCH  16  18
ENDBRANCH   8  16
ENDBRANCH   1   9
BRANCH   3  21
ATOM     21  C   UNL     1      -2.196   0.088   0.028  0.00  0.00    +0.169 A 
ATOM     22  N   UNL     1      -2.743  -1.098  -0.095  0.00  0.00    -0.073 NA
ATOM     23  O   UNL     1      -3.949  -1.043  -0.042  0.00  0.00    -0.354 OA
ATOM     24  C   UNL     1      -4.384   0.219   0.119  0.00  0.00    +0.171 A 
ATOM     25  C   UNL     1      -3.268   1.007   0.171  0.00  0.00    +0.086 A 
BRANCH  24  26
ATOM     26  C   UNL     1      -5.789   0.665   0.219  0.00  0.00    +0.061 A 
ATOM     27  C   UNL     1      -6.728   0.252  -0.734  0.00  0.00    +0.128 A 
ATOM     28  C   UNL     1      -8.045   0.671  -0.627  0.00  0.00    +0.046 A 
ATOM     29  C   UNL     1      -8.425   1.504   0.408  0.00  0.00    +0.004 A 
ATOM     30  C   UNL     1      -7.498   1.919   1.349  0.00  0.00    +0.001 A 
ATOM     31  C   UNL     1      -6.185   1.506   1.261  0.00  0.00    +0.015 A 
BRANCH  27  32
ATOM     32  O   UNL     1      -6.353  -0.566  -1.750  0.00  0.00    -0.506 OA
ATOM     33  H   UNL     1      -6.083   0.004  -2.483  0.00  0.00    +0.292 HD
ENDBRANCH  27  32
ENDBRANCH  24  26
ENDBRANCH   3  21
TORSDOF 10
