REMARK  Name = m345
REMARK  3 active torsions:
REMARK  status: ('A' for Active; 'I' for Inactive)
REMARK    1  A    between atoms: C_2  and  C_3
REMARK    2  A    between atoms: C_12  and  C_13
REMARK    3  A    between atoms: C_14  and  C_15
REMARK                            x       y       z     vdW  Elec       q    Type
REMARK                         _______ _______ _______ _____ _____    ______ ____
ROOT
ATOM      1  C   UNL     1      -1.543   0.944  -0.007  0.00  0.00    -0.014 A 
ATOM      2  C   UNL     1      -2.577   1.860  -0.264  0.00  0.00    +0.012 A 
ATOM      3  C   UNL     1      -3.866   1.463   0.167  0.00  0.00    +0.109 A 
ATOM      4  N   UNL     1      -4.933   2.210  -0.007  0.00  0.00    -0.248 NA
ATOM      5  C   UNL     1      -4.856   3.383  -0.605  0.00  0.00    +0.112 A 
ATOM      6  C   UNL     1      -3.637   3.858  -1.068  0.00  0.00    +0.020 A 
ATOM      7  S   UNL     1      -3.577  -0.127   0.905  0.00  0.00    -0.064 S 
ATOM      8  C   UNL     1      -2.500   3.120  -0.913  0.00  0.00    +0.012 A 
ATOM      9  C   UNL     1      -1.817  -0.227   0.627  0.00  0.00    +0.080 A 
ENDROOT
BRANCH   9  10
ATOM     10  C   UNL     1      -0.892  -1.308   0.994  0.00  0.00    +0.254 C 
ATOM     11  N   UNL     1      -0.766  -2.387   0.196  0.00  0.00    -0.293 N 
ATOM     12  C   UNL     1      -1.560  -2.523  -1.037  0.00  0.00    +0.136 C 
ATOM     13  C   UNL     1      -2.152  -3.931  -1.076  0.00  0.00    +0.179 C 
ATOM     14  O   UNL     1      -1.106  -4.896  -0.964  0.00  0.00    -0.377 OA
ATOM     15  C   UNL     1      -0.575  -4.808   0.358  0.00  0.00    +0.179 C 
ATOM     16  C   UNL     1       0.167  -3.478   0.527  0.00  0.00    +0.136 C 
ATOM     17  O   UNL     1      -0.240  -1.230   2.019  0.00  0.00    -0.269 OA
ENDBRANCH   9  10
BRANCH   1  22
ATOM     18  O   UNL     1       3.359   1.904   1.847  0.00  0.00    -0.268 OA
ATOM     19  C   UNL     1       3.335   1.307   0.789  0.00  0.00    +0.267 C 
ATOM     20  N   UNL     1       2.155   0.971   0.231  0.00  0.00    -0.296 N 
ATOM     21  C   UNL     1       0.824   1.260   0.795  0.00  0.00    +0.116 C 
ATOM     22  C   UNL     1      -0.131   1.262  -0.427  0.00  0.00    +0.040 C 
ATOM     23  C   UNL     1       0.465   0.116  -1.286  0.00  0.00    +0.029 C 
ATOM     24  C   UNL     1       1.982   0.251  -1.040  0.00  0.00    +0.109 C 
BRANCH  19  25
ATOM     25  C   UNL     1       4.600   0.943   0.118  0.00  0.00    +0.147 A 
ATOM     26  N   UNL     1       4.724   0.295  -1.023  0.00  0.00    -0.169 NA
ATOM     27  N   UNL     1       5.967   0.151  -1.315  0.00  0.00    -0.284 N 
ATOM     28  H   UNL     1       6.302  -0.293  -2.110  0.00  0.00    +0.188 HD
ATOM     29  C   UNL     1       6.739   0.703  -0.355  0.00  0.00    +0.105 A 
ATOM     30  C   UNL     1       5.908   1.220   0.580  0.00  0.00    +0.054 A 
ENDBRANCH  19  25
ENDBRANCH   1  22
TORSDOF 3
