REMARK  Name = m346
REMARK  9 active torsions:
REMARK  status: ('A' for Active; 'I' for Inactive)
REMARK    1  A    between atoms: C_1  and  N_2
REMARK    2  A    between atoms: N_2  and  C_3
REMARK    3  A    between atoms: C_3  and  C_4
REMARK    4  A    between atoms: C_4  and  O_5
REMARK    5  A    between atoms: C_6  and  C_8
REMARK    6  A    between atoms: C_16  and  C_17
REMARK    7  A    between atoms: N_19  and  C_20
REMARK    8  A    between atoms: C_20  and  C_21
REMARK    9  A    between atoms: N_25  and  C_26
REMARK                            x       y       z     vdW  Elec       q    Type
REMARK                         _______ _______ _______ _____ _____    ______ ____
ROOT
ATOM      1  C   UNL     1       2.014  -0.395   0.242  0.00  0.00    +0.082 A 
ATOM      2  C   UNL     1       1.226   0.675   0.529  0.00  0.00    +0.011 A 
ATOM      3  C   UNL     1       1.735   1.977   0.387  0.00  0.00    +0.014 A 
ATOM      4  C   UNL     1       3.073   2.064  -0.071  0.00  0.00    +0.109 A 
ATOM      5  N   UNL     1       3.684   3.211  -0.258  0.00  0.00    -0.248 NA
ATOM      6  C   UNL     1       3.075   4.358  -0.024  0.00  0.00    +0.112 A 
ATOM      7  C   UNL     1       1.763   4.377   0.428  0.00  0.00    +0.020 A 
ATOM      8  C   UNL     1       1.083   3.213   0.638  0.00  0.00    +0.012 A 
ATOM      9  S   UNL     1       3.546   0.363  -0.269  0.00  0.00    -0.064 S 
ENDROOT
BRANCH   2  10
ATOM     10  C   UNL     1      -0.188   0.465   1.006  0.00  0.00    +0.164 C 
ATOM     11  O   UNL     1      -0.207  -0.561   1.998  0.00  0.00    -0.369 OA
ATOM     12  C   UNL     1      -1.551  -0.667   2.469  0.00  0.00    +0.176 C 
ATOM     13  C   UNL     1      -2.466  -1.105   1.325  0.00  0.00    +0.113 C 
ATOM     14  N   UNL     1      -2.460  -0.080   0.272  0.00  0.00    -0.292 NA
ATOM     15  C   UNL     1      -1.068   0.057  -0.176  0.00  0.00    +0.121 C 
BRANCH  14  16
ATOM     16  C   UNL     1      -3.216  -0.633  -0.860  0.00  0.00    +0.139 C 
BRANCH  16  17
ATOM     17  C   UNL     1      -4.687  -0.379  -0.653  0.00  0.00    +0.053 A 
ATOM     18  N   UNL     1      -5.357   0.741  -0.996  0.00  0.00    -0.270 N 
ATOM     19  C   UNL     1      -4.783   1.925  -1.640  0.00  0.00    +0.172 C 
ATOM     20  N   UNL     1      -6.699   0.568  -0.635  0.00  0.00    -0.180 NA
ATOM     21  C   UNL     1      -6.827  -0.613  -0.087  0.00  0.00    +0.134 A 
ATOM     22  C   UNL     1      -5.572  -1.232  -0.086  0.00  0.00    +0.045 A 
ENDBRANCH  16  17
ENDBRANCH  14  16
ENDBRANCH   2  10
BRANCH   1  25
ATOM     23  C   UNL     1       2.308  -4.176   0.197  0.00  0.00    +0.132 C 
ATOM     24  N   UNL     1       2.644  -2.751   0.145  0.00  0.00    -0.298 N 
ATOM     25  C   UNL     1       1.682  -1.824   0.326  0.00  0.00    +0.253 C 
ATOM     26  O   UNL     1       0.539  -2.171   0.557  0.00  0.00    -0.269 OA
BRANCH  24  27
ATOM     27  C   UNL     1       4.027  -2.333  -0.101  0.00  0.00    +0.135 C 
BRANCH  27  28
ATOM     28  C   UNL     1       4.288  -2.301  -1.609  0.00  0.00    +0.174 C 
BRANCH  28  29
ATOM     29  O   UNL     1       3.475  -1.293  -2.212  0.00  0.00    -0.393 OA
ATOM     30  H   UNL     1       3.670  -1.307  -3.159  0.00  0.00    +0.209 HD
ENDBRANCH  28  29
ENDBRANCH  27  28
ENDBRANCH  24  27
ENDBRANCH   1  25
TORSDOF 7
