REMARK  Name = m347
REMARK  10 active torsions:
REMARK  status: ('A' for Active; 'I' for Inactive)
REMARK    1  A    between atoms: C_1  and  O_2
REMARK    2  A    between atoms: O_2  and  C_3
REMARK    3  A    between atoms: C_6  and  C_7
REMARK    4  A    between atoms: C_7  and  C_8
REMARK    5  A    between atoms: C_12  and  C_13
REMARK    6  A    between atoms: C_14  and  C_15
REMARK    7  A    between atoms: N_16  and  C_17
REMARK    8  A    between atoms: C_22  and  C_23
REMARK    9  A    between atoms: C_30  and  O_31
REMARK   10  A    between atoms: O_31  and  C_32
REMARK                            x       y       z     vdW  Elec       q    Type
REMARK                         _______ _______ _______ _____ _____    ______ ____
ROOT
ATOM      1  C   UNL     1       1.702   0.328   1.902  0.00  0.00    +0.156 A 
ATOM      2  N   UNL     1       1.084   1.483   1.862  0.00  0.00    -0.148 NA
ATOM      3  N   UNL     1      -0.206   1.244   1.373  0.00  0.00    -0.201 N 
ATOM      4  C   UNL     1      -0.282  -0.106   1.150  0.00  0.00    +0.169 A 
ATOM      5  C   UNL     1      -1.540  -0.635   0.637  0.00  0.00    +0.067 A 
ATOM      6  C   UNL     1      -2.590   0.262   0.403  0.00  0.00    +0.152 A 
ATOM      7  N   UNL     1      -2.405   1.565   0.657  0.00  0.00    -0.217 NA
ATOM      8  N   UNL     1      -3.648  -0.471  -0.070  0.00  0.00    -0.282 N 
ATOM      9  C   UNL     1      -3.305  -1.796  -0.144  0.00  0.00    +0.028 A 
ATOM     10  C   UNL     1      -4.211  -2.902  -0.619  0.00  0.00    +0.064 C 
ATOM     11  C   UNL     1      -2.036  -1.957   0.273  0.00  0.00    -0.017 A 
ATOM     12  C   UNL     1      -1.274  -3.255   0.349  0.00  0.00    +0.046 C 
ATOM     13  C   UNL     1      -1.281   2.034   1.115  0.00  0.00    +0.227 A 
ATOM     14  N   UNL     1       0.884  -0.630   1.478  0.00  0.00    -0.210 NA
ENDROOT
BRANCH   8  15
ATOM     15  C   UNL     1      -4.892   0.056  -0.424  0.00  0.00    +0.142 A 
ATOM     16  C   UNL     1      -4.960   1.271  -1.095  0.00  0.00    -0.008 A 
ATOM     17  C   UNL     1      -3.701   2.020  -1.448  0.00  0.00    +0.047 C 
ATOM     18  C   UNL     1      -6.199   1.778  -1.445  0.00  0.00    +0.008 A 
ATOM     19  C   UNL     1      -7.332   1.055  -1.101  0.00  0.00    +0.020 A 
ATOM     20  C   UNL     1      -7.191  -0.143  -0.428  0.00  0.00    +0.113 A 
ATOM     21  N   UNL     1      -5.996  -0.605  -0.113  0.00  0.00    -0.237 NA
ENDBRANCH   8  15
BRANCH   1  22
ATOM     22  C   UNL     1       3.121   0.117   2.363  0.00  0.00    +0.113 C 
BRANCH  22  26
ATOM     23  C   UNL     1       5.772   0.473  -0.973  0.00  0.00    +0.161 A 
ATOM     24  C   UNL     1       5.230  -0.765  -0.645  0.00  0.00    +0.162 A 
ATOM     25  C   UNL     1       4.376  -0.878   0.441  0.00  0.00    +0.053 A 
ATOM     26  C   UNL     1       4.055   0.240   1.187  0.00  0.00    -0.036 A 
ATOM     27  C   UNL     1       4.590   1.472   0.857  0.00  0.00    +0.008 A 
ATOM     28  C   UNL     1       5.447   1.591  -0.221  0.00  0.00    +0.049 A 
BRANCH  23  30
ATOM     29  C   UNL     1       6.992   1.965  -2.116  0.00  0.00    +0.277 C 
ATOM     30  O   UNL     1       6.615   0.588  -2.034  0.00  0.00    -0.491 OA
ENDBRANCH  23  30
BRANCH  24  31
ATOM     31  O   UNL     1       5.546  -1.864  -1.380  0.00  0.00    -0.491 OA
ATOM     32  C   UNL     1       4.852  -2.967  -0.794  0.00  0.00    +0.277 C 
ENDBRANCH  24  31
ENDBRANCH  22  26
ENDBRANCH   1  22
TORSDOF 5
