REMARK  Name = m348
REMARK  7 active torsions:
REMARK  status: ('A' for Active; 'I' for Inactive)
REMARK    1  A    between atoms: C_1  and  O_2
REMARK    2  A    between atoms: O_2  and  C_3
REMARK    3  A    between atoms: C_6  and  N_7
REMARK    4  A    between atoms: C_8  and  C_10
REMARK    5  A    between atoms: C_10  and  N_11
REMARK    6  A    between atoms: C_31  and  O_32
REMARK    7  A    between atoms: O_32  and  C_33
REMARK                            x       y       z     vdW  Elec       q    Type
REMARK                         _______ _______ _______ _____ _____    ______ ____
ROOT
ATOM      1  N   UNL     1      -0.368  -0.584   1.284  0.00  0.00    -0.203 N 
ATOM      2  C   UNL     1      -0.887  -1.787   0.961  0.00  0.00    +0.352 A 
ATOM      3  O   UNL     1      -0.389  -2.872   1.203  0.00  0.00    -0.244 OA
ATOM      4  N   UNL     1      -2.053  -1.573   0.325  0.00  0.00    -0.239 N 
ATOM      5  C   UNL     1      -2.260  -0.205   0.244  0.00  0.00    +0.203 A 
ATOM      6  C   UNL     1      -3.476   0.292  -0.418  0.00  0.00    +0.167 A 
ATOM      7  N   UNL     1      -4.341  -0.556  -0.919  0.00  0.00    -0.227 NA
ATOM      8  C   UNL     1      -4.147  -1.900  -0.845  0.00  0.00    +0.090 A 
ATOM      9  C   UNL     1      -5.096  -2.771  -1.393  0.00  0.00    +0.030 A 
ATOM     10  C   UNL     1      -4.904  -4.133  -1.320  0.00  0.00    +0.002 A 
ATOM     11  C   UNL     1      -3.775  -4.649  -0.705  0.00  0.00    +0.002 A 
ATOM     12  C   UNL     1      -2.829  -3.804  -0.159  0.00  0.00    +0.028 A 
ATOM     13  N   UNL     1      -3.705   1.650  -0.513  0.00  0.00    -0.311 N 
ATOM     14  C   UNL     1      -2.681   2.594  -0.061  0.00  0.00    +0.117 C 
ATOM     15  C   UNL     1      -3.218   3.423   1.101  0.00  0.00    +0.088 C 
ATOM     16  S   UNL     1      -4.700   4.321   0.562  0.00  0.00    -0.158 S 
ATOM     17  C   UNL     1      -5.725   2.924   0.019  0.00  0.00    +0.088 C 
ATOM     18  C   UNL     1      -4.974   2.137  -1.058  0.00  0.00    +0.117 C 
ATOM     19  C   UNL     1      -3.006  -2.430  -0.224  0.00  0.00    +0.078 A 
ATOM     20  N   UNL     1      -1.254   0.398   0.817  0.00  0.00    -0.145 NA
ENDROOT
BRANCH   1  21
ATOM     21  C   UNL     1       0.893  -0.347   1.989  0.00  0.00    +0.244 C 
BRANCH  21  24
ATOM     22  N   UNL     1       3.276  -0.015   1.411  0.00  0.00    -0.281 N 
ATOM     23  H   UNL     1       3.476  -0.014   2.360  0.00  0.00    +0.155 HD
ATOM     24  C   UNL     1       2.015  -0.234   0.988  0.00  0.00    +0.239 C 
ATOM     25  O   UNL     1       1.783  -0.342  -0.197  0.00  0.00    -0.273 OA
BRANCH  22  29
ATOM     26  C   UNL     1       6.319   0.663  -1.366  0.00  0.00    +0.124 A 
ATOM     27  C   UNL     1       6.628   0.156  -0.113  0.00  0.00    +0.093 A 
ATOM     28  C   UNL     1       5.622  -0.065   0.812  0.00  0.00    +0.145 A 
ATOM     29  C   UNL     1       4.298   0.213   0.478  0.00  0.00    +0.076 A 
ATOM     30  C   UNL     1       3.993   0.715  -0.779  0.00  0.00    +0.030 A 
ATOM     31  C   UNL     1       5.000   0.939  -1.698  0.00  0.00    +0.047 A 
BRANCH  26  33
ATOM     32  C   UNL     1       6.681   1.394  -3.451  0.00  0.00    +0.277 C 
ATOM     33  O   UNL     1       7.307   0.884  -2.273  0.00  0.00    -0.495 OA
ENDBRANCH  26  33
BRANCH  28  34
ATOM     34  O   UNL     1       5.924  -0.557   2.043  0.00  0.00    -0.493 OA
ATOM     35  C   UNL     1       7.341  -0.736   2.080  0.00  0.00    +0.277 C 
ENDBRANCH  28  34
ENDBRANCH  22  29
ENDBRANCH  21  24
ENDBRANCH   1  21
TORSDOF 5
