REMARK  Name = m349
REMARK  12 active torsions:
REMARK  status: ('A' for Active; 'I' for Inactive)
REMARK    1  A    between atoms: C_1  and  O_2
REMARK    2  A    between atoms: O_2  and  C_3
REMARK    3  A    between atoms: C_6  and  N_7
REMARK    4  A    between atoms: C_8  and  C_10
REMARK    5  A    between atoms: C_15  and  C_16
REMARK    6  A    between atoms: C_17  and  C_18
REMARK    7  A    between atoms: C_18  and  C_19
REMARK    8  A    between atoms: C_22  and  C_23
REMARK    9  A    between atoms: C_26  and  O_27
REMARK   10  A    between atoms: C_29  and  C_30
REMARK   11  A    between atoms: C_31  and  O_32
REMARK   12  A    between atoms: O_32  and  C_33
REMARK                            x       y       z     vdW  Elec       q    Type
REMARK                         _______ _______ _______ _____ _____    ______ ____
ROOT
ATOM      1  C   UNL     1       1.476   1.423  -0.379  0.00  0.00    +0.099 A 
ATOM      2  C   UNL     1       0.806   2.547  -0.840  0.00  0.00    +0.060 A 
ATOM      3  C   UNL     1       1.537   3.643  -1.573  0.00  0.00    +0.067 C 
ATOM      4  N   UNL     1      -0.482   2.619  -0.628  0.00  0.00    -0.226 NA
ATOM      5  C   UNL     1      -1.134   1.663   0.014  0.00  0.00    +0.198 A 
ATOM      6  N   UNL     1      -2.486   1.590   0.323  0.00  0.00    -0.175 N 
ATOM      7  C   UNL     1      -3.104   0.573   0.985  0.00  0.00    +0.221 A 
ATOM      8  C   UNL     1      -4.421   0.892   1.085  0.00  0.00    +0.041 A 
ATOM      9  C   UNL     1      -4.612   2.129   0.460  0.00  0.00    +0.068 A 
ATOM     10  C   UNL     1      -5.925   2.857   0.332  0.00  0.00    +0.068 C 
ATOM     11  N   UNL     1      -3.458   2.546   0.005  0.00  0.00    -0.166 NA
ATOM     12  S   UNL     1       0.127   0.523   0.372  0.00  0.00    -0.043 S 
ENDROOT
BRANCH   1  15
ATOM     13  N   UNL     1       3.341  -0.083   0.055  0.00  0.00    -0.278 N 
ATOM     14  H   UNL     1       2.712  -0.722   0.424  0.00  0.00    +0.155 HD
ATOM     15  C   UNL     1       2.894   1.073  -0.475  0.00  0.00    +0.257 C 
ATOM     16  O   UNL     1       3.671   1.827  -1.033  0.00  0.00    -0.269 OA
BRANCH  13  20
ATOM     17  C   UNL     1       7.432  -0.912   0.104  0.00  0.00    +0.124 A 
ATOM     18  C   UNL     1       6.516  -1.954   0.128  0.00  0.00    +0.093 A 
ATOM     19  C   UNL     1       5.158  -1.682   0.117  0.00  0.00    +0.145 A 
ATOM     20  C   UNL     1       4.715  -0.362   0.071  0.00  0.00    +0.076 A 
ATOM     21  C   UNL     1       5.635   0.676   0.042  0.00  0.00    +0.030 A 
ATOM     22  C   UNL     1       6.989   0.402   0.058  0.00  0.00    +0.047 A 
BRANCH  17  24
ATOM     23  C   UNL     1       9.439   0.080   0.081  0.00  0.00    +0.277 C 
ATOM     24  O   UNL     1       8.765  -1.179   0.119  0.00  0.00    -0.495 OA
ENDBRANCH  17  24
BRANCH  19  25
ATOM     25  O   UNL     1       4.259  -2.701   0.145  0.00  0.00    -0.493 OA
ATOM     26  C   UNL     1       5.012  -3.915   0.190  0.00  0.00    +0.277 C 
ENDBRANCH  19  25
ENDBRANCH  13  20
ENDBRANCH   1  15
BRANCH   7  27
ATOM     27  O   UNL     1      -2.511  -0.550   1.466  0.00  0.00    -0.492 OA
ATOM     28  H   UNL     1      -2.554  -1.212   0.762  0.00  0.00    +0.294 HD
ENDBRANCH   7  27
BRANCH   8  29
ATOM     29  C   UNL     1      -5.488   0.057   1.744  0.00  0.00    +0.077 C 
BRANCH  29  30
ATOM     30  C   UNL     1      -6.090  -0.882   0.731  0.00  0.00    -0.043 A 
ATOM     31  C   UNL     1      -7.189  -0.488  -0.009  0.00  0.00    +0.004 A 
ATOM     32  C   UNL     1      -7.739  -1.347  -0.942  0.00  0.00    +0.003 A 
ATOM     33  C   UNL     1      -7.194  -2.604  -1.128  0.00  0.00    -0.050 A 
ATOM     34  C   UNL     1      -7.796  -3.543  -2.142  0.00  0.00    +0.044 C 
ATOM     35  C   UNL     1      -6.099  -3.001  -0.384  0.00  0.00    +0.003 A 
ATOM     36  C   UNL     1      -5.547  -2.139   0.546  0.00  0.00    +0.004 A 
ENDBRANCH  29  30
ENDBRANCH   8  29
TORSDOF 7
