REMARK  Name = m350
REMARK  10 active torsions:
REMARK  status: ('A' for Active; 'I' for Inactive)
REMARK    1  A    between atoms: C_1  and  C_2
REMARK    2  A    between atoms: C_2  and  C_3
REMARK    3  A    between atoms: C_2  and  C_4
REMARK    4  A    between atoms: C_7  and  C_8
REMARK    5  A    between atoms: C_8  and  N_9
REMARK    6  A    between atoms: C_13  and  C_14
REMARK    7  A    between atoms: C_15  and  C_16
REMARK    8  A    between atoms: N_18  and  C_19
REMARK    9  A    between atoms: C_19  and  C_20
REMARK   10  A    between atoms: C_20  and  O_21
REMARK                            x       y       z     vdW  Elec       q    Type
REMARK                         _______ _______ _______ _____ _____    ______ ____
ROOT
ATOM      1  C   UNL     1      -2.296  -0.942   0.271  0.00  0.00    +0.011 A 
ATOM      2  C   UNL     1      -2.851  -2.227   0.142  0.00  0.00    +0.014 A 
ATOM      3  C   UNL     1      -4.195  -2.270  -0.303  0.00  0.00    +0.109 A 
ATOM      4  N   UNL     1      -4.851  -3.396  -0.468  0.00  0.00    -0.248 NA
ATOM      5  C   UNL     1      -4.284  -4.561  -0.220  0.00  0.00    +0.112 A 
ATOM      6  C   UNL     1      -2.971  -4.622   0.226  0.00  0.00    +0.020 A 
ATOM      7  S   UNL     1      -4.604  -0.555  -0.526  0.00  0.00    -0.064 S 
ATOM      8  C   UNL     1      -2.246  -3.482   0.414  0.00  0.00    +0.012 A 
ATOM      9  C   UNL     1      -3.042   0.152  -0.035  0.00  0.00    +0.082 A 
ENDROOT
BRANCH   1  12
ATOM     10  N   UNL     1       1.416  -0.333  -0.005  0.00  0.00    -0.293 NA
ATOM     11  C   UNL     1       0.019  -0.424  -0.449  0.00  0.00    +0.121 C 
ATOM     12  C   UNL     1      -0.873  -0.778   0.742  0.00  0.00    +0.164 C 
ATOM     13  O   UNL     1      -0.813   0.263   1.716  0.00  0.00    -0.369 OA
ATOM     14  C   UNL     1       0.535   0.326   2.183  0.00  0.00    +0.176 C 
ATOM     15  C   UNL     1       1.463   0.709   1.029  0.00  0.00    +0.113 C 
BRANCH  10  16
ATOM     16  C   UNL     1       2.190   0.172  -1.148  0.00  0.00    +0.122 C 
BRANCH  16  20
ATOM     17  C   UNL     1       6.274  -0.139  -0.311  0.00  0.00    +0.131 A 
ATOM     18  N   UNL     1       5.633   0.963   0.023  0.00  0.00    -0.240 NA
ATOM     19  C   UNL     1       4.341   1.099  -0.231  0.00  0.00    +0.119 A 
ATOM     20  C   UNL     1       3.662   0.060  -0.846  0.00  0.00    +0.003 A 
ATOM     21  C   UNL     1       4.369  -1.085  -1.178  0.00  0.00    +0.119 A 
ATOM     22  N   UNL     1       5.661  -1.148  -0.897  0.00  0.00    -0.240 NA
BRANCH  17  24
ATOM     23  C   UNL     1       8.503   0.860  -0.739  0.00  0.00    +0.015 C 
ATOM     24  C   UNL     1       7.746  -0.252  -0.009  0.00  0.00    +0.051 C 
ATOM     25  C   UNL     1       7.970  -0.116   1.498  0.00  0.00    +0.015 C 
ENDBRANCH  17  24
ENDBRANCH  16  20
ENDBRANCH  10  16
ENDBRANCH   1  12
BRANCH   9  26
ATOM     26  C   UNL     1      -2.657   1.569   0.025  0.00  0.00    +0.251 C 
ATOM     27  N   UNL     1      -3.543   2.523  -0.321  0.00  0.00    -0.309 N 
ATOM     28  H   UNL     1      -4.436   2.275  -0.609  0.00  0.00    +0.149 HD
ATOM     29  O   UNL     1      -1.538   1.880   0.386  0.00  0.00    -0.270 OA
BRANCH  27  30
ATOM     30  C   UNL     1      -3.159   3.936  -0.262  0.00  0.00    +0.132 C 
BRANCH  30  31
ATOM     31  C   UNL     1      -4.339   4.804  -0.703  0.00  0.00    +0.174 C 
BRANCH  31  32
ATOM     32  O   UNL     1      -5.410   4.664   0.234  0.00  0.00    -0.393 OA
ATOM     33  H   UNL     1      -6.131   5.226  -0.081  0.00  0.00    +0.209 HD
ENDBRANCH  31  32
ENDBRANCH  30  31
ENDBRANCH  27  30
ENDBRANCH   9  26
TORSDOF 8
