REMARK  Name = m351
REMARK  11 active torsions:
REMARK  status: ('A' for Active; 'I' for Inactive)
REMARK    1  A    between atoms: C_1  and  C_2
REMARK    2  A    between atoms: C_2  and  O_3
REMARK    3  A    between atoms: O_3  and  C_4
REMARK    4  A    between atoms: C_9  and  C_10
REMARK    5  A    between atoms: C_13  and  C_14
REMARK    6  A    between atoms: N_17  and  C_18
REMARK    7  A    between atoms: C_18  and  C_19
REMARK    8  A    between atoms: C_21  and  C_22
REMARK    9  A    between atoms: C_26  and  C_27
REMARK   10  A    between atoms: C_30  and  C_31
REMARK   11  A    between atoms: C_32  and  C_33
REMARK                            x       y       z     vdW  Elec       q    Type
REMARK                         _______ _______ _______ _____ _____    ______ ____
ROOT
ATOM      1  C   UNL     1       0.767  -1.732  -0.420  0.00  0.00    +0.172 A 
ATOM      2  C   UNL     1      -0.314  -1.470  -1.217  0.00  0.00    +0.069 A 
ATOM      3  C   UNL     1      -0.459  -0.343  -2.207  0.00  0.00    +0.068 C 
ATOM      4  N   UNL     1      -1.220  -2.431  -0.943  0.00  0.00    -0.242 N 
ATOM      5  N   UNL     1      -0.733  -3.211  -0.044  0.00  0.00    -0.064 NA
ATOM      6  N   UNL     1       0.448  -2.829   0.294  0.00  0.00    -0.124 NA
ENDROOT
BRANCH   1   9
ATOM      7  C   UNL     1       3.970  -0.260   0.146  0.00  0.00    +0.206 A 
ATOM      8  N   UNL     1       3.066  -1.223   0.422  0.00  0.00    -0.186 NA
ATOM      9  C   UNL     1       2.027  -0.963  -0.351  0.00  0.00    +0.281 A 
ATOM     10  O   UNL     1       2.337   0.129  -1.066  0.00  0.00    -0.331 OA
ATOM     11  N   UNL     1       3.447   0.516  -0.769  0.00  0.00    -0.055 NA
BRANCH   7  13
ATOM     12  C   UNL     1       6.154   0.931   0.366  0.00  0.00    +0.131 A 
ATOM     13  C   UNL     1       5.311  -0.112   0.762  0.00  0.00    +0.064 A 
ATOM     14  C   UNL     1       5.740  -1.017   1.731  0.00  0.00    +0.015 A 
ATOM     15  C   UNL     1       6.988  -0.875   2.301  0.00  0.00    +0.001 A 
ATOM     16  C   UNL     1       7.819   0.162   1.912  0.00  0.00    +0.004 A 
ATOM     17  C   UNL     1       7.406   1.062   0.948  0.00  0.00    +0.046 A 
BRANCH  12  18
ATOM     18  O   UNL     1       5.747   1.815  -0.580  0.00  0.00    -0.492 OA
BRANCH  18  20
ATOM     19  C   UNL     1       6.416   3.780  -1.817  0.00  0.00    +0.048 C 
ATOM     20  C   UNL     1       6.813   2.750  -0.758  0.00  0.00    +0.226 C 
ENDBRANCH  18  20
ENDBRANCH  12  18
ENDBRANCH   7  13
ENDBRANCH   1   9
BRANCH   4  21
ATOM     21  C   UNL     1      -2.542  -2.561  -1.563  0.00  0.00    +0.204 C 
BRANCH  21  22
ATOM     22  C   UNL     1      -3.552  -1.783  -0.759  0.00  0.00    +0.104 A 
ATOM     23  C   UNL     1      -4.284  -2.257   0.266  0.00  0.00    +0.128 A 
ATOM     24  C   UNL     1      -4.241  -3.657   0.822  0.00  0.00    +0.088 C 
ATOM     25  O   UNL     1      -5.057  -1.245   0.707  0.00  0.00    -0.440 OA
ATOM     26  C   UNL     1      -4.796  -0.169  -0.055  0.00  0.00    +0.228 A 
ATOM     27  N   UNL     1      -3.885  -0.496  -0.941  0.00  0.00    -0.212 NA
BRANCH  26  28
ATOM     28  C   UNL     1      -5.429   1.160   0.082  0.00  0.00    +0.037 A 
ATOM     29  C   UNL     1      -6.393   1.379   1.067  0.00  0.00    +0.016 A 
ATOM     30  C   UNL     1      -6.976   2.623   1.193  0.00  0.00    -0.050 A 
ATOM     31  C   UNL     1      -8.014   2.862   2.260  0.00  0.00    +0.044 C 
ATOM     32  C   UNL     1      -6.615   3.649   0.339  0.00  0.00    +0.003 A 
ATOM     33  C   UNL     1      -5.664   3.437  -0.644  0.00  0.00    +0.001 A 
ATOM     34  C   UNL     1      -5.069   2.200  -0.777  0.00  0.00    +0.013 A 
ENDBRANCH  26  28
ENDBRANCH  21  22
ENDBRANCH   4  21
TORSDOF 7
