REMARK  Name = m352
REMARK  8 active torsions:
REMARK  status: ('A' for Active; 'I' for Inactive)
REMARK    1  A    between atoms: C_1  and  O_2
REMARK    2  A    between atoms: O_2  and  C_3
REMARK    3  A    between atoms: C_4  and  C_5
REMARK    4  A    between atoms: C_9  and  C_10
REMARK    5  A    between atoms: C_16  and  C_17
REMARK    6  A    between atoms: N_20  and  C_21
REMARK    7  A    between atoms: N_20  and  C_22
REMARK    8  A    between atoms: C_25  and  C_26
REMARK                            x       y       z     vdW  Elec       q    Type
REMARK                         _______ _______ _______ _____ _____    ______ ____
ROOT
ATOM      1  C   UNL     1      -2.165  -0.673  -0.888  0.00  0.00    +0.250 C 
ATOM      2  N   UNL     1      -1.120  -1.103  -0.154  0.00  0.00    -0.292 N 
ATOM      3  C   UNL     1       0.268  -0.886  -0.598  0.00  0.00    +0.146 C 
ATOM      4  C   UNL     1       1.067  -0.338   0.595  0.00  0.00    +0.185 C 
ATOM      5  O   UNL     1       0.958  -1.240   1.696  0.00  0.00    -0.367 OA
ATOM      6  C   UNL     1      -0.388  -1.190   2.166  0.00  0.00    +0.179 C 
ATOM      7  C   UNL     1      -1.321  -1.812   1.122  0.00  0.00    +0.136 C 
ATOM      8  O   UNL     1      -1.973   0.001  -1.882  0.00  0.00    -0.270 OA
ENDROOT
BRANCH   4   9
ATOM      9  C   UNL     1       2.515  -0.195   0.204  0.00  0.00    +0.084 A 
ATOM     10  C   UNL     1       3.057   1.065  -0.061  0.00  0.00    +0.027 A 
ATOM     11  C   UNL     1       4.406   1.145  -0.415  0.00  0.00    +0.125 A 
ATOM     12  N   UNL     1       5.116   0.034  -0.495  0.00  0.00    -0.222 NA
ATOM     13  C   UNL     1       4.565  -1.145  -0.240  0.00  0.00    +0.218 A 
ATOM     14  N   UNL     1       5.342  -2.285  -0.336  0.00  0.00    -0.306 N 
ATOM     15  C   UNL     1       6.753  -2.180  -0.714  0.00  0.00    +0.132 C 
ATOM     16  C   UNL     1       4.753  -3.598  -0.059  0.00  0.00    +0.132 C 
ATOM     17  N   UNL     1       3.290  -1.261   0.103  0.00  0.00    -0.216 NA
BRANCH  10  18
ATOM     18  C   UNL     1       2.223   2.288   0.041  0.00  0.00    +0.022 A 
ATOM     19  C   UNL     1       0.987   2.369  -0.605  0.00  0.00    +0.122 A 
ATOM     20  N   UNL     1       0.273   3.476  -0.484  0.00  0.00    -0.243 NA
ATOM     21  C   UNL     1       0.719   4.495   0.224  0.00  0.00    +0.221 A 
ATOM     22  N   UNL     1       1.881   4.461   0.844  0.00  0.00    -0.243 NA
ATOM     23  C   UNL     1       2.655   3.392   0.780  0.00  0.00    +0.122 A 
ENDBRANCH  10  18
ENDBRANCH   4   9
BRANCH   1  25
ATOM     24  C   UNL     1      -4.534  -0.033  -0.446  0.00  0.00    +0.135 A 
ATOM     25  C   UNL     1      -3.541  -1.021  -0.487  0.00  0.00    +0.079 A 
ATOM     26  C   UNL     1      -3.860  -2.336  -0.137  0.00  0.00    +0.017 A 
ATOM     27  C   UNL     1      -5.147  -2.654   0.237  0.00  0.00    +0.001 A 
ATOM     28  C   UNL     1      -6.127  -1.676   0.272  0.00  0.00    +0.007 A 
ATOM     29  C   UNL     1      -5.825  -0.372  -0.067  0.00  0.00    -0.008 A 
ATOM     30  C   UNL     1      -6.899   0.685  -0.026  0.00  0.00    +0.047 C 
BRANCH  24  32
ATOM     31  C   UNL     1      -3.832   1.904   0.423  0.00  0.00    +0.277 C 
ATOM     32  O   UNL     1      -4.236   1.247  -0.780  0.00  0.00    -0.494 OA
ENDBRANCH  24  32
ENDBRANCH   1  25
TORSDOF 4
