REMARK  Name = m353
REMARK  7 active torsions:
REMARK  status: ('A' for Active; 'I' for Inactive)
REMARK    1  A    between atoms: C_1  and  O_2
REMARK    2  A    between atoms: O_2  and  C_3
REMARK    3  A    between atoms: C_3  and  C_4
REMARK    4  A    between atoms: C_4  and  N_5
REMARK    5  A    between atoms: C_6  and  C_8
REMARK    6  A    between atoms: C_12  and  C_13
REMARK    7  A    between atoms: C_18  and  C_19
REMARK                            x       y       z     vdW  Elec       q    Type
REMARK                         _______ _______ _______ _____ _____    ______ ____
ROOT
ATOM      1  C   UNL     1       2.174   0.184  -0.203  0.00  0.00    +0.100 A 
ATOM      2  C   UNL     1       0.816   0.557  -0.147  0.00  0.00    +0.169 A 
ATOM      3  N   UNL     1       0.787   1.918  -0.021  0.00  0.00    -0.209 N 
ATOM      4  C   UNL     1      -0.411   2.568   0.062  0.00  0.00    +0.149 A 
ATOM      5  C   UNL     1      -1.558   1.851   0.024  0.00  0.00    +0.060 A 
ATOM      6  C   UNL     1      -1.490   0.447  -0.101  0.00  0.00    +0.075 A 
ATOM      7  N   UNL     1       2.108   2.381  -0.009  0.00  0.00    -0.172 NA
ATOM      8  N   UNL     1      -0.311  -0.152  -0.178  0.00  0.00    -0.227 NA
ATOM      9  C   UNL     1       2.927   1.369  -0.116  0.00  0.00    +0.150 A 
ENDROOT
BRANCH   6  10
ATOM     10  C   UNL     1      -2.733  -0.354  -0.145  0.00  0.00    +0.004 A 
ATOM     11  C   UNL     1      -2.801  -1.577   0.524  0.00  0.00    +0.059 A 
ATOM     12  C   UNL     1      -3.966  -2.320   0.485  0.00  0.00    +0.167 A 
ATOM     13  O   UNL     1      -4.290  -3.522   1.047  0.00  0.00    -0.453 OA
ATOM     14  C   UNL     1      -5.453  -3.978   0.333  0.00  0.00    +0.466 C 
ATOM     15  O   UNL     1      -6.078  -2.762  -0.117  0.00  0.00    -0.453 OA
ATOM     16  C   UNL     1      -5.067  -1.853  -0.231  0.00  0.00    +0.166 A 
ATOM     17  C   UNL     1      -4.996  -0.640  -0.901  0.00  0.00    +0.050 A 
ATOM     18  C   UNL     1      -3.838   0.108  -0.861  0.00  0.00    +0.014 A 
ENDBRANCH   6  10
BRANCH   1  21
ATOM     19  N   UNL     1       4.031  -1.383  -0.380  0.00  0.00    -0.309 N 
ATOM     20  H   UNL     1       4.641  -0.630  -0.327  0.00  0.00    +0.149 HD
ATOM     21  C   UNL     1       2.700  -1.177  -0.334  0.00  0.00    +0.249 C 
ATOM     22  O   UNL     1       1.935  -2.122  -0.400  0.00  0.00    -0.270 OA
BRANCH  19  23
ATOM     23  C   UNL     1       4.558  -2.744  -0.511  0.00  0.00    +0.132 C 
BRANCH  23  24
ATOM     24  C   UNL     1       6.087  -2.699  -0.540  0.00  0.00    +0.178 C 
BRANCH  24  26
ATOM     25  C   UNL     1       7.999  -2.205   0.628  0.00  0.00    +0.194 C 
ATOM     26  O   UNL     1       6.573  -2.225   0.717  0.00  0.00    -0.381 OA
ENDBRANCH  24  26
ENDBRANCH  23  24
ENDBRANCH  19  23
ENDBRANCH   1  21
BRANCH   4  27
ATOM     27  C   UNL     1      -0.454   4.069   0.194  0.00  0.00    +0.434 C 
ATOM     28  F   UNL     1       0.167   4.653  -0.915  0.00  0.00    -0.164 F 
ATOM     29  F   UNL     1       0.216   4.454   1.360  0.00  0.00    -0.164 F 
ATOM     30  F   UNL     1      -1.786   4.493   0.260  0.00  0.00    -0.164 F 
ENDBRANCH   4  27
TORSDOF 6
