REMARK  Name = m354
REMARK  9 active torsions:
REMARK  status: ('A' for Active; 'I' for Inactive)
REMARK    1  A    between atoms: C_1  and  O_2
REMARK    2  A    between atoms: O_2  and  C_3
REMARK    3  A    between atoms: C_5  and  C_6
REMARK    4  A    between atoms: C_7  and  N_8
REMARK    5  A    between atoms: C_9  and  C_11
REMARK    6  A    between atoms: C_13  and  C_14
REMARK    7  A    between atoms: C_22  and  C_23
REMARK    8  A    between atoms: C_30  and  O_31
REMARK    9  A    between atoms: O_31  and  C_32
REMARK                            x       y       z     vdW  Elec       q    Type
REMARK                         _______ _______ _______ _____ _____    ______ ____
ROOT
ATOM      1  C   UNL     1      -0.729  -0.086  -0.208  0.00  0.00    +0.113 A 
ATOM      2  N   UNL     1      -1.216   1.204  -0.171  0.00  0.00    -0.278 N 
ATOM      3  C   UNL     1      -2.570   1.419  -0.075  0.00  0.00    +0.171 A 
ATOM      4  C   UNL     1      -2.741   2.812  -0.068  0.00  0.00    +0.169 A 
ATOM      5  N   UNL     1      -1.515   3.361  -0.164  0.00  0.00    -0.229 NA
ATOM      6  N   UNL     1      -3.422   0.399  -0.006  0.00  0.00    -0.227 NA
ATOM      7  C   UNL     1      -2.993  -0.851  -0.033  0.00  0.00    +0.076 A 
ATOM      8  C   UNL     1      -0.615   2.421  -0.228  0.00  0.00    +0.206 A 
ATOM      9  C   UNL     1      -1.610  -1.125  -0.137  0.00  0.00    +0.060 A 
ENDROOT
BRANCH   7  10
ATOM     10  C   UNL     1      -3.964  -1.967   0.045  0.00  0.00    +0.000 A 
ATOM     11  C   UNL     1      -3.787  -3.106  -0.741  0.00  0.00    +0.010 A 
ATOM     12  C   UNL     1      -4.691  -4.144  -0.658  0.00  0.00    +0.001 A 
ATOM     13  C   UNL     1      -5.778  -4.053   0.193  0.00  0.00    +0.000 A 
ATOM     14  C   UNL     1      -5.962  -2.924   0.971  0.00  0.00    +0.001 A 
ATOM     15  C   UNL     1      -5.061  -1.881   0.902  0.00  0.00    +0.010 A 
ENDBRANCH   7  10
BRANCH   4  16
ATOM     16  C   UNL     1      -4.013   3.532   0.026  0.00  0.00    +0.264 C 
ATOM     17  O   UNL     1      -5.059   2.914   0.108  0.00  0.00    -0.269 OA
ATOM     18  N   UNL     1      -4.026   4.880   0.021  0.00  0.00    -0.324 N 
ATOM     19  H   UNL     1      -4.868   5.357   0.083  0.00  0.00    +0.145 HD
ATOM     20  H   UNL     1      -3.193   5.373  -0.045  0.00  0.00    +0.145 HD
ENDBRANCH   4  16
BRANCH   1  23
ATOM     21  N   UNL     1       1.600   0.602   0.085  0.00  0.00    -0.280 N 
ATOM     22  H   UNL     1       1.283   1.475   0.366  0.00  0.00    +0.155 HD
ATOM     23  C   UNL     1       0.722  -0.337  -0.318  0.00  0.00    +0.265 C 
ATOM     24  O   UNL     1       1.123  -1.391  -0.771  0.00  0.00    -0.268 OA
BRANCH  21  28
ATOM     25  C   UNL     1       5.686  -0.237   0.120  0.00  0.00    +0.162 A 
ATOM     26  C   UNL     1       4.763  -1.278   0.114  0.00  0.00    +0.163 A 
ATOM     27  C   UNL     1       3.407  -1.000   0.108  0.00  0.00    +0.073 A 
ATOM     28  C   UNL     1       2.971   0.319   0.097  0.00  0.00    +0.040 A 
ATOM     29  C   UNL     1       3.895   1.356   0.098  0.00  0.00    -0.026 A 
ATOM     30  C   UNL     1       3.420   2.786   0.086  0.00  0.00    +0.046 C 
ATOM     31  C   UNL     1       5.248   1.078   0.109  0.00  0.00    +0.054 A 
BRANCH  25  33
ATOM     32  C   UNL     1       7.698   0.748   0.129  0.00  0.00    +0.277 C 
ATOM     33  O   UNL     1       7.019  -0.509   0.132  0.00  0.00    -0.491 OA
ENDBRANCH  25  33
BRANCH  26  34
ATOM     34  O   UNL     1       5.193  -2.569   0.125  0.00  0.00    -0.491 OA
ATOM     35  C   UNL     1       4.026  -3.393   0.127  0.00  0.00    +0.277 C 
ENDBRANCH  26  34
ENDBRANCH  21  28
ENDBRANCH   1  23
TORSDOF 6
