REMARK  Name = m355
REMARK  13 active torsions:
REMARK  status: ('A' for Active; 'I' for Inactive)
REMARK    1  A    between atoms: C_1  and  C_2
REMARK    2  A    between atoms: C_2  and  C_3
REMARK    3  A    between atoms: C_3  and  C_4
REMARK    4  A    between atoms: C_3  and  N_5
REMARK    5  A    between atoms: C_6  and  C_8
REMARK    6  A    between atoms: C_8  and  N_9
REMARK    7  A    between atoms: N_12  and  C_13
REMARK    8  A    between atoms: C_13  and  C_14
REMARK    9  A    between atoms: C_17  and  C_18
REMARK   10  A    between atoms: C_32  and  O_33
REMARK   11  A    between atoms: O_33  and  C_34
REMARK   12  A    between atoms: C_35  and  O_36
REMARK   13  A    between atoms: O_36  and  C_37
REMARK                            x       y       z     vdW  Elec       q    Type
REMARK                         _______ _______ _______ _____ _____    ______ ____
ROOT
ATOM      1  N   UNL     1      -1.692  -0.377   0.149  0.00  0.00    -0.284 N 
ATOM      2  C   UNL     1      -2.056   0.935  -0.125  0.00  0.00    +0.063 A 
ATOM      3  C   UNL     1      -1.457   1.971   0.615  0.00  0.00    +0.067 A 
ATOM      4  C   UNL     1      -1.805   3.300   0.368  0.00  0.00    +0.064 A 
ATOM      5  C   UNL     1      -2.745   3.588  -0.600  0.00  0.00    +0.162 A 
ATOM      6  C   UNL     1      -3.343   2.558  -1.330  0.00  0.00    +0.163 A 
ATOM      7  C   UNL     1      -0.461   1.611   1.636  0.00  0.00    +0.265 A 
ATOM      8  O   UNL     1       0.090   2.470   2.299  0.00  0.00    -0.267 OA
ATOM      9  N   UNL     1      -0.174   0.305   1.820  0.00  0.00    -0.256 N 
ATOM     10  C   UNL     1      -3.001   1.237  -1.090  0.00  0.00    +0.076 A 
ATOM     11  C   UNL     1      -0.776  -0.650   1.094  0.00  0.00    +0.333 A 
ATOM     12  O   UNL     1      -0.480  -1.812   1.300  0.00  0.00    -0.246 OA
ENDROOT
BRANCH   6  13
ATOM     13  O   UNL     1      -4.266   2.854  -2.281  0.00  0.00    -0.491 OA
ATOM     14  C   UNL     1      -4.690   1.611  -2.845  0.00  0.00    +0.277 C 
ENDBRANCH   6  13
BRANCH   5  15
ATOM     15  O   UNL     1      -3.090   4.882  -0.846  0.00  0.00    -0.491 OA
ATOM     16  C   UNL     1      -2.319   5.691   0.045  0.00  0.00    +0.277 C 
ENDBRANCH   5  15
BRANCH   1  17
ATOM     17  C   UNL     1      -2.307  -1.473  -0.604  0.00  0.00    +0.222 C 
BRANCH  17  20
ATOM     18  N   UNL     1      -4.284  -2.946  -0.402  0.00  0.00    -0.311 N 
ATOM     19  H   UNL     1      -4.013  -3.371  -1.231  0.00  0.00    +0.149 HD
ATOM     20  C   UNL     1      -3.549  -1.939   0.111  0.00  0.00    +0.233 C 
ATOM     21  O   UNL     1      -3.887  -1.408   1.147  0.00  0.00    -0.274 OA
BRANCH  18  22
ATOM     22  C   UNL     1      -5.491  -3.398   0.293  0.00  0.00    +0.070 C 
ATOM     23  C   UNL     1      -5.109  -4.419   1.367  0.00  0.00    +0.028 C 
BRANCH  22  25
ATOM     24  C   UNL     1      -6.925  -2.995  -1.713  0.00  0.00    +0.005 C 
ATOM     25  C   UNL     1      -6.445  -4.048  -0.712  0.00  0.00    +0.018 C 
ENDBRANCH  22  25
ENDBRANCH  18  22
ENDBRANCH  17  20
ENDBRANCH   1  17
BRANCH   9  26
ATOM     26  C   UNL     1       0.815  -0.078   2.831  0.00  0.00    +0.165 C 
BRANCH  26  27
ATOM     27  C   UNL     1       2.185  -0.119   2.204  0.00  0.00    -0.027 A 
ATOM     28  C   UNL     1       2.651  -1.295   1.643  0.00  0.00    +0.006 A 
ATOM     29  C   UNL     1       3.901  -1.338   1.063  0.00  0.00    +0.013 A 
ATOM     30  C   UNL     1       4.702  -0.195   1.052  0.00  0.00    +0.037 A 
ATOM     31  C   UNL     1       4.228   0.987   1.624  0.00  0.00    +0.013 A 
ATOM     32  C   UNL     1       2.973   1.018   2.196  0.00  0.00    +0.006 A 
BRANCH  30  33
ATOM     33  C   UNL     1       6.046  -0.235   0.437  0.00  0.00    +0.247 C 
ATOM     34  N   UNL     1       6.236  -0.894  -0.724  0.00  0.00    -0.298 N 
ATOM     35  C   UNL     1       7.587  -1.058  -1.278  0.00  0.00    +0.108 C 
ATOM     36  C   UNL     1       7.599  -0.547  -2.718  0.00  0.00    +0.019 C 
ATOM     37  C   UNL     1       6.501  -1.253  -3.517  0.00  0.00    +0.003 C 
ATOM     38  C   UNL     1       5.136  -0.936  -2.901  0.00  0.00    +0.019 C 
ATOM     39  C   UNL     1       5.097  -1.457  -1.461  0.00  0.00    +0.108 C 
ATOM     40  O   UNL     1       6.979   0.326   0.978  0.00  0.00    -0.270 OA
ENDBRANCH  30  33
ENDBRANCH  26  27
ENDBRANCH   9  26
TORSDOF 9
