REMARK  Name = m356
REMARK  10 active torsions:
REMARK  status: ('A' for Active; 'I' for Inactive)
REMARK    1  A    between atoms: C_1  and  O_2
REMARK    2  A    between atoms: O_2  and  C_3
REMARK    3  A    between atoms: N_8  and  C_9
REMARK    4  A    between atoms: C_9  and  C_10
REMARK    5  A    between atoms: C_13  and  C_14
REMARK    6  A    between atoms: N_25  and  C_26
REMARK    7  A    between atoms: C_26  and  C_27
REMARK    8  A    between atoms: N_29  and  C_30
REMARK    9  A    between atoms: C_37  and  O_38
REMARK   10  A    between atoms: O_38  and  C_39
REMARK                            x       y       z     vdW  Elec       q    Type
REMARK                         _______ _______ _______ _____ _____    ______ ____
ROOT
ATOM      1  C   UNL     1      -3.035   3.538   1.063  0.00  0.00    +0.162 A 
ATOM      2  C   UNL     1      -3.887   2.432   1.056  0.00  0.00    +0.163 A 
ATOM      3  C   UNL     1      -3.606   1.332   0.262  0.00  0.00    +0.076 A 
ATOM      4  C   UNL     1      -2.466   1.324  -0.523  0.00  0.00    +0.063 A 
ATOM      5  C   UNL     1      -1.603   2.435  -0.513  0.00  0.00    +0.067 A 
ATOM      6  C   UNL     1      -0.401   2.391  -1.361  0.00  0.00    +0.265 A 
ATOM      7  N   UNL     1      -0.183   1.287  -2.107  0.00  0.00    -0.256 N 
ATOM      8  C   UNL     1      -1.035   0.250  -2.084  0.00  0.00    +0.333 A 
ATOM      9  O   UNL     1      -0.790  -0.720  -2.775  0.00  0.00    -0.246 OA
ATOM     10  O   UNL     1       0.378   3.325  -1.388  0.00  0.00    -0.267 OA
ATOM     11  N   UNL     1      -2.147   0.238  -1.329  0.00  0.00    -0.284 N 
ATOM     12  C   UNL     1      -1.895   3.542   0.285  0.00  0.00    +0.064 A 
ENDROOT
BRANCH   1  14
ATOM     13  C   UNL     1      -2.280   5.566   1.642  0.00  0.00    +0.277 C 
ATOM     14  O   UNL     1      -3.326   4.614   1.844  0.00  0.00    -0.491 OA
ENDBRANCH   1  14
BRANCH   2  15
ATOM     15  O   UNL     1      -5.006   2.439   1.826  0.00  0.00    -0.491 OA
ATOM     16  C   UNL     1      -5.670   1.194   1.601  0.00  0.00    +0.277 C 
ENDBRANCH   2  15
BRANCH   7  17
ATOM     17  C   UNL     1       1.007   1.219  -2.959  0.00  0.00    +0.165 C 
BRANCH  17  18
ATOM     18  C   UNL     1       2.149   0.617  -2.180  0.00  0.00    -0.027 A 
ATOM     19  C   UNL     1       2.999   1.437  -1.461  0.00  0.00    +0.006 A 
ATOM     20  C   UNL     1       4.043   0.891  -0.741  0.00  0.00    +0.013 A 
ATOM     21  C   UNL     1       4.246  -0.490  -0.750  0.00  0.00    +0.037 A 
ATOM     22  C   UNL     1       3.387  -1.310  -1.483  0.00  0.00    +0.013 A 
ATOM     23  C   UNL     1       2.344  -0.753  -2.193  0.00  0.00    +0.006 A 
BRANCH  21  24
ATOM     24  C   UNL     1       5.366  -1.080   0.013  0.00  0.00    +0.247 C 
ATOM     25  N   UNL     1       5.939  -0.385   1.016  0.00  0.00    -0.298 N 
ATOM     26  C   UNL     1       5.473   0.912   1.537  0.00  0.00    +0.108 C 
ATOM     27  C   UNL     1       6.017   0.973   2.989  0.00  0.00    +0.020 C 
ATOM     28  C   UNL     1       7.404   0.296   2.826  0.00  0.00    +0.020 C 
ATOM     29  C   UNL     1       7.136  -0.792   1.766  0.00  0.00    +0.108 C 
ATOM     30  O   UNL     1       5.770  -2.193  -0.263  0.00  0.00    -0.270 OA
ENDBRANCH  21  24
ENDBRANCH  17  18
ENDBRANCH   7  17
BRANCH  11  31
ATOM     31  C   UNL     1      -3.030  -0.930  -1.355  0.00  0.00    +0.222 C 
BRANCH  31  32
ATOM     32  C   UNL     1      -2.599  -1.910  -0.293  0.00  0.00    +0.233 C 
ATOM     33  N   UNL     1      -3.271  -3.067  -0.132  0.00  0.00    -0.311 N 
ATOM     34  H   UNL     1      -4.031  -3.269  -0.699  0.00  0.00    +0.149 HD
ATOM     35  O   UNL     1      -1.648  -1.656   0.415  0.00  0.00    -0.274 OA
BRANCH  33  36
ATOM     36  C   UNL     1      -2.852  -4.019   0.900  0.00  0.00    +0.073 C 
ATOM     37  C   UNL     1      -1.780  -4.973   0.335  0.00  0.00    +0.022 C 
ATOM     38  C   UNL     1      -2.104  -6.339   0.989  0.00  0.00    +0.002 C 
ATOM     39  C   UNL     1      -3.653  -6.354   0.998  0.00  0.00    +0.002 C 
ATOM     40  C   UNL     1      -4.043  -4.897   1.322  0.00  0.00    +0.022 C 
ENDBRANCH  33  36
ENDBRANCH  31  32
ENDBRANCH  11  31
TORSDOF 8
