REMARK  Name = m357
REMARK  8 active torsions:
REMARK  status: ('A' for Active; 'I' for Inactive)
REMARK    1  A    between atoms: C_1  and  C_2
REMARK    2  A    between atoms: C_2  and  N_3
REMARK    3  A    between atoms: N_3  and  C_4
REMARK    4  A    between atoms: C_4  and  C_5
REMARK    5  A    between atoms: C_6  and  C_8
REMARK    6  A    between atoms: C_8  and  N_9
REMARK    7  A    between atoms: C_13  and  C_14
REMARK    8  A    between atoms: C_15  and  C_16
REMARK                            x       y       z     vdW  Elec       q    Type
REMARK                         _______ _______ _______ _____ _____    ______ ____
ROOT
ATOM      1  C   UNL     1      -1.445  -1.130   0.224  0.00  0.00    +0.011 A 
ATOM      2  C   UNL     1      -1.965  -2.434   0.155  0.00  0.00    +0.014 A 
ATOM      3  C   UNL     1      -3.191  -2.566  -0.542  0.00  0.00    +0.109 A 
ATOM      4  N   UNL     1      -3.803  -3.720  -0.687  0.00  0.00    -0.248 NA
ATOM      5  C   UNL     1      -3.301  -4.829  -0.179  0.00  0.00    +0.112 A 
ATOM      6  C   UNL     1      -2.106  -4.801   0.526  0.00  0.00    +0.020 A 
ATOM      7  S   UNL     1      -3.543  -0.905  -1.065  0.00  0.00    -0.064 S 
ATOM      8  C   UNL     1      -1.432  -3.629   0.705  0.00  0.00    +0.012 A 
ATOM      9  C   UNL     1      -2.111  -0.103  -0.366  0.00  0.00    +0.082 A 
ENDROOT
BRANCH   9  10
ATOM     10  C   UNL     1      -1.742   1.319  -0.417  0.00  0.00    +0.254 C 
ATOM     11  N   UNL     1      -2.614   2.256   0.005  0.00  0.00    -0.293 N 
ATOM     12  C   UNL     1      -3.884   1.884   0.652  0.00  0.00    +0.136 C 
ATOM     13  C   UNL     1      -5.007   2.702   0.014  0.00  0.00    +0.179 C 
ATOM     14  O   UNL     1      -4.704   4.093   0.112  0.00  0.00    -0.377 OA
ATOM     15  C   UNL     1      -3.592   4.357  -0.741  0.00  0.00    +0.179 C 
ATOM     16  C   UNL     1      -2.335   3.692  -0.168  0.00  0.00    +0.136 C 
ATOM     17  O   UNL     1      -0.650   1.649  -0.839  0.00  0.00    -0.269 OA
ENDBRANCH   9  10
BRANCH   1  20
ATOM     18  N   UNL     1       2.247  -0.472   0.623  0.00  0.00    -0.289 NA
ATOM     19  C   UNL     1       0.969  -0.653  -0.076  0.00  0.00    +0.121 C 
ATOM     20  C   UNL     1      -0.147  -0.873   0.946  0.00  0.00    +0.164 C 
ATOM     21  O   UNL     1      -0.283   0.286   1.768  0.00  0.00    -0.369 OA
ATOM     22  C   UNL     1       0.942   0.441   2.484  0.00  0.00    +0.176 C 
ATOM     23  C   UNL     1       2.086   0.695   1.501  0.00  0.00    +0.113 C 
BRANCH  18  24
ATOM     24  C   UNL     1       3.238  -0.100  -0.396  0.00  0.00    +0.180 C 
BRANCH  24  26
ATOM     25  N   UNL     1       5.685   0.234  -0.528  0.00  0.00    -0.301 N 
ATOM     26  C   UNL     1       4.618  -0.137   0.207  0.00  0.00    +0.230 C 
ATOM     27  O   UNL     1       4.769  -0.500   1.355  0.00  0.00    -0.274 OA
BRANCH  25  29
ATOM     28  C   UNL     1       7.230   1.717   0.652  0.00  0.00    +0.024 C 
ATOM     29  C   UNL     1       7.010   0.311   0.092  0.00  0.00    +0.104 C 
ENDBRANCH  25  29
BRANCH  25  30
ATOM     30  C   UNL     1       5.519   0.559  -1.946  0.00  0.00    +0.104 C 
ATOM     31  C   UNL     1       5.789  -0.688  -2.791  0.00  0.00    +0.024 C 
ENDBRANCH  25  30
ENDBRANCH  24  26
ENDBRANCH  18  24
ENDBRANCH   1  20
TORSDOF 6
