REMARK  Name = m358
REMARK  5 active torsions:
REMARK  status: ('A' for Active; 'I' for Inactive)
REMARK    1  A    between atoms: C_1  and  O_2
REMARK    2  A    between atoms: O_2  and  C_3
REMARK    3  A    between atoms: C_6  and  C_7
REMARK    4  A    between atoms: C_11  and  C_12
REMARK    5  A    between atoms: N_14  and  C_15
REMARK                            x       y       z     vdW  Elec       q    Type
REMARK                         _______ _______ _______ _____ _____    ______ ____
ROOT
ATOM      1  C   UNL     1      -0.422  -1.364  -0.009  0.00  0.00    +0.103 A 
ATOM      2  C   UNL     1      -0.666  -0.001  -0.039  0.00  0.00    +0.133 A 
ATOM      3  N   UNL     1      -2.057   0.157  -0.080  0.00  0.00    -0.303 N 
ATOM      4  C   UNL     1      -2.992   1.284  -0.166  0.00  0.00    +0.148 C 
ATOM      5  C   UNL     1      -4.409   0.896   0.322  0.00  0.00    +0.197 C 
ATOM      6  S   UNL     1      -4.335  -0.913  -0.017  0.00  0.00    +0.032 S 
ATOM      7  O   UNL     1      -4.738  -1.688   1.103  0.00  0.00    -0.166 OA
ATOM      8  O   UNL     1      -4.718  -1.228  -1.349  0.00  0.00    -0.166 OA
ATOM      9  C   UNL     1      -2.562  -1.092  -0.037  0.00  0.00    +0.252 A 
ATOM     10  N   UNL     1      -1.612  -1.981  -0.012  0.00  0.00    -0.211 NA
ENDROOT
BRANCH   1  14
ATOM     11  C   UNL     1       3.391  -3.241   0.094  0.00  0.00    +0.120 A 
ATOM     12  C   UNL     1       3.190  -2.123  -0.706  0.00  0.00    +0.046 A 
ATOM     13  C   UNL     1       1.954  -1.515  -0.746  0.00  0.00    +0.013 A 
ATOM     14  C   UNL     1       0.906  -2.018   0.027  0.00  0.00    +0.003 A 
ATOM     15  C   UNL     1       1.113  -3.138   0.833  0.00  0.00    +0.013 A 
ATOM     16  C   UNL     1       2.350  -3.744   0.864  0.00  0.00    +0.046 A 
BRANCH  11  18
ATOM     17  C   UNL     1       5.456  -3.104  -0.758  0.00  0.00    +0.277 C 
ATOM     18  O   UNL     1       4.609  -3.841   0.127  0.00  0.00    -0.495 OA
ENDBRANCH  11  18
ENDBRANCH   1  14
BRANCH   2  19
ATOM     19  C   UNL     1       0.335   1.067  -0.036  0.00  0.00    +0.267 C 
ATOM     20  N   UNL     1      -0.055   2.356  -0.075  0.00  0.00    -0.279 N 
ATOM     21  H   UNL     1      -0.993   2.576  -0.187  0.00  0.00    +0.155 HD
ATOM     22  O   UNL     1       1.520   0.790   0.003  0.00  0.00    -0.268 OA
BRANCH  20  23
ATOM     23  C   UNL     1       0.894   3.377   0.044  0.00  0.00    +0.052 A 
ATOM     24  C   UNL     1       0.721   4.581  -0.627  0.00  0.00    +0.134 A 
ATOM     25  N   UNL     1       1.610   5.548  -0.512  0.00  0.00    -0.261 NA
ATOM     26  C   UNL     1       2.693   5.412   0.227  0.00  0.00    +0.111 A 
ATOM     27  C   UNL     1       2.938   4.240   0.920  0.00  0.00    +0.021 A 
ATOM     28  C   UNL     1       2.028   3.200   0.833  0.00  0.00    +0.026 A 
ENDBRANCH  20  23
ENDBRANCH   2  19
TORSDOF 4
