REMARK  Name = m359
REMARK  7 active torsions:
REMARK  status: ('A' for Active; 'I' for Inactive)
REMARK    1  A    between atoms: C_1  and  N_2
REMARK    2  A    between atoms: C_6  and  C_7
REMARK    3  A    between atoms: C_7  and  N_8
REMARK    4  A    between atoms: C_7  and  C_29
REMARK    5  A    between atoms: C_9  and  C_11
REMARK    6  A    between atoms: C_13  and  C_14
REMARK    7  A    between atoms: C_22  and  C_23
REMARK                            x       y       z     vdW  Elec       q    Type
REMARK                         _______ _______ _______ _____ _____    ______ ____
ROOT
ATOM      1  C   UNL     1       0.983   0.660  -0.358  0.00  0.00    +0.113 A 
ATOM      2  N   UNL     1       2.071   1.505  -0.431  0.00  0.00    -0.278 N 
ATOM      3  C   UNL     1       3.337   1.004  -0.247  0.00  0.00    +0.171 A 
ATOM      4  C   UNL     1       4.207   2.097  -0.373  0.00  0.00    +0.169 A 
ATOM      5  N   UNL     1       3.447   3.182  -0.615  0.00  0.00    -0.229 NA
ATOM      6  N   UNL     1       3.533  -0.291  -0.009  0.00  0.00    -0.227 NA
ATOM      7  C   UNL     1       2.517  -1.133   0.062  0.00  0.00    +0.076 A 
ATOM      8  C   UNL     1       2.190   2.840  -0.647  0.00  0.00    +0.206 A 
ATOM      9  C   UNL     1       1.194  -0.666  -0.114  0.00  0.00    +0.060 A 
ENDROOT
BRANCH   7  10
ATOM     10  C   UNL     1       2.764  -2.568   0.327  0.00  0.00    +0.000 A 
ATOM     11  C   UNL     1       1.917  -3.280   1.177  0.00  0.00    +0.010 A 
ATOM     12  C   UNL     1       2.149  -4.619   1.416  0.00  0.00    +0.001 A 
ATOM     13  C   UNL     1       3.227  -5.253   0.824  0.00  0.00    +0.000 A 
ATOM     14  C   UNL     1       4.074  -4.552  -0.016  0.00  0.00    +0.001 A 
ATOM     15  C   UNL     1       3.849  -3.214  -0.267  0.00  0.00    +0.010 A 
ENDBRANCH   7  10
BRANCH   4  16
ATOM     16  C   UNL     1       5.668   2.064  -0.262  0.00  0.00    +0.264 C 
ATOM     17  O   UNL     1       6.238   1.012  -0.040  0.00  0.00    -0.269 OA
ATOM     18  N   UNL     1       6.380   3.199  -0.406  0.00  0.00    -0.324 N 
ATOM     19  H   UNL     1       7.347   3.178  -0.332  0.00  0.00    +0.145 HD
ATOM     20  H   UNL     1       5.926   4.038  -0.583  0.00  0.00    +0.145 HD
ENDBRANCH   4  16
BRANCH   1  23
ATOM     21  N   UNL     1      -1.446   0.367  -0.373  0.00  0.00    -0.296 N 
ATOM     22  H   UNL     1      -1.310  -0.576  -0.196  0.00  0.00    +0.150 HD
ATOM     23  C   UNL     1      -0.386   1.181  -0.548  0.00  0.00    +0.262 C 
ATOM     24  O   UNL     1      -0.556   2.342  -0.863  0.00  0.00    -0.269 OA
BRANCH  21  25
ATOM     25  C   UNL     1      -2.805   0.909  -0.449  0.00  0.00    +0.170 C 
BRANCH  25  26
ATOM     26  C   UNL     1      -3.763  -0.189  -0.833  0.00  0.00    -0.017 A 
ATOM     27  C   UNL     1      -3.610  -1.456  -0.301  0.00  0.00    +0.044 A 
ATOM     28  C   UNL     1      -4.494  -2.463  -0.649  0.00  0.00    +0.124 A 
ATOM     29  F   UNL     1      -4.349  -3.700  -0.126  0.00  0.00    -0.205 F 
ATOM     30  C   UNL     1      -5.523  -2.204  -1.539  0.00  0.00    +0.038 A 
ATOM     31  C   UNL     1      -5.670  -0.938  -2.074  0.00  0.00    +0.003 A 
ATOM     32  C   UNL     1      -4.791   0.069  -1.721  0.00  0.00    +0.006 A 
ENDBRANCH  25  26
BRANCH  25  35
ATOM     33  C   UNL     1      -4.189   3.632   0.073  0.00  0.00    +0.150 C 
ATOM     34  N   UNL     1      -3.799   2.663   1.100  0.00  0.00    -0.336 N 
ATOM     35  C   UNL     1      -3.198   1.472   0.892  0.00  0.00    +0.134 A 
ATOM     36  N   UNL     1      -3.005   0.894   2.046  0.00  0.00    -0.238 NA
ATOM     37  C   UNL     1      -3.481   1.682   3.021  0.00  0.00    +0.130 A 
ATOM     38  C   UNL     1      -3.982   2.795   2.451  0.00  0.00    +0.106 A 
ENDBRANCH  25  35
ENDBRANCH  21  25
ENDBRANCH   1  23
TORSDOF 6
