REMARK  Name = m360
REMARK  7 active torsions:
REMARK  status: ('A' for Active; 'I' for Inactive)
REMARK    1  A    between atoms: C_1  and  C_2
REMARK    2  A    between atoms: C_2  and  O_3
REMARK    3  A    between atoms: O_3  and  C_4
REMARK    4  A    between atoms: C_4  and  C_6
REMARK    5  A    between atoms: C_11  and  N_12
REMARK    6  A    between atoms: C_13  and  C_15
REMARK    7  A    between atoms: C_15  and  N_16
REMARK                            x       y       z     vdW  Elec       q    Type
REMARK                         _______ _______ _______ _____ _____    ______ ____
ROOT
ATOM      1  N   UNL     1      -0.763  -0.347   1.152  0.00  0.00    -0.203 N 
ATOM      2  C   UNL     1      -1.622  -1.385   1.068  0.00  0.00    +0.352 A 
ATOM      3  O   UNL     1      -1.378  -2.543   1.357  0.00  0.00    -0.244 OA
ATOM      4  N   UNL     1      -2.795  -0.911   0.612  0.00  0.00    -0.239 N 
ATOM      5  C   UNL     1      -2.660   0.452   0.399  0.00  0.00    +0.203 A 
ATOM      6  C   UNL     1      -3.814   1.210  -0.110  0.00  0.00    +0.167 A 
ATOM      7  N   UNL     1      -4.945   0.594  -0.354  0.00  0.00    -0.227 NA
ATOM      8  C   UNL     1      -5.087  -0.744  -0.148  0.00  0.00    +0.090 A 
ATOM      9  C   UNL     1      -6.313  -1.362  -0.421  0.00  0.00    +0.030 A 
ATOM     10  C   UNL     1      -6.461  -2.716  -0.214  0.00  0.00    +0.002 A 
ATOM     11  C   UNL     1      -5.404  -3.472   0.265  0.00  0.00    +0.002 A 
ATOM     12  C   UNL     1      -4.188  -2.877   0.540  0.00  0.00    +0.028 A 
ATOM     13  N   UNL     1      -3.705   2.568  -0.331  0.00  0.00    -0.312 N 
ATOM     14  C   UNL     1      -2.500   3.383  -0.095  0.00  0.00    +0.106 C 
ATOM     15  C   UNL     1      -2.662   4.607  -1.034  0.00  0.00    +0.020 C 
ATOM     16  C   UNL     1      -4.189   4.866  -0.945  0.00  0.00    +0.020 C 
ATOM     17  C   UNL     1      -4.775   3.442  -0.835  0.00  0.00    +0.106 C 
ATOM     18  C   UNL     1      -4.020  -1.515   0.336  0.00  0.00    +0.078 A 
ATOM     19  N   UNL     1      -1.443   0.801   0.720  0.00  0.00    -0.145 NA
ENDROOT
BRANCH   1  20
ATOM     20  C   UNL     1       0.628  -0.409   1.605  0.00  0.00    +0.244 C 
BRANCH  20  23
ATOM     21  N   UNL     1       2.861  -0.780   0.606  0.00  0.00    -0.283 N 
ATOM     22  H   UNL     1       3.248  -0.598   1.476  0.00  0.00    +0.155 HD
ATOM     23  C   UNL     1       1.529  -0.681   0.427  0.00  0.00    +0.239 C 
ATOM     24  O   UNL     1       1.054  -0.809  -0.682  0.00  0.00    -0.273 OA
BRANCH  21  26
ATOM     25  C   UNL     1       4.962  -0.587  -0.586  0.00  0.00    +0.080 A 
ATOM     26  C   UNL     1       3.681  -1.145  -0.459  0.00  0.00    +0.047 A 
ATOM     27  C   UNL     1       3.230  -2.055  -1.407  0.00  0.00    +0.024 A 
ATOM     28  C   UNL     1       4.045  -2.415  -2.462  0.00  0.00    +0.002 A 
ATOM     29  C   UNL     1       5.313  -1.869  -2.587  0.00  0.00    +0.001 A 
ATOM     30  C   UNL     1       5.774  -0.961  -1.660  0.00  0.00    +0.017 A 
BRANCH  25  31
ATOM     31  C   UNL     1       5.450   0.384   0.410  0.00  0.00    +0.341 C 
ATOM     32  O   UNL     1       4.715   0.760   1.302  0.00  0.00    -0.245 OA
BRANCH  31  33
ATOM     33  O   UNL     1       6.710   0.853   0.332  0.00  0.00    -0.461 OA
BRANCH  33  35
ATOM     34  C   UNL     1       8.642   2.178   0.998  0.00  0.00    +0.048 C 
ATOM     35  C   UNL     1       7.191   1.810   1.313  0.00  0.00    +0.229 C 
ENDBRANCH  33  35
ENDBRANCH  31  33
ENDBRANCH  25  31
ENDBRANCH  21  26
ENDBRANCH  20  23
ENDBRANCH   1  20
TORSDOF 6
