REMARK  Name = m361
REMARK  10 active torsions:
REMARK  status: ('A' for Active; 'I' for Inactive)
REMARK    1  A    between atoms: C_1  and  C_2
REMARK    2  A    between atoms: C_2  and  O_3
REMARK    3  A    between atoms: O_3  and  C_4
REMARK    4  A    between atoms: C_4  and  C_6
REMARK    5  A    between atoms: C_7  and  S_8
REMARK    6  A    between atoms: S_8  and  N_11
REMARK    7  A    between atoms: C_14  and  C_15
REMARK    8  A    between atoms: C_26  and  C_27
REMARK    9  A    between atoms: N_28  and  C_29
REMARK   10  A    between atoms: C_30  and  C_31
REMARK                            x       y       z     vdW  Elec       q    Type
REMARK                         _______ _______ _______ _____ _____    ______ ____
ROOT
ATOM      1  S   UNL     1      -1.758  -0.979  -1.214  0.00  0.00    +0.063 S 
ATOM      2  O   UNL     1      -1.751   0.123  -2.111  0.00  0.00    -0.153 OA
ATOM      3  O   UNL     1      -1.722  -2.348  -1.593  0.00  0.00    -0.153 OA
ENDROOT
BRANCH   1  11
ATOM      4  C   UNL     1      -3.951   0.452   0.011  0.00  0.00    +0.106 A 
ATOM      5  C   UNL     1      -5.005   0.110   0.830  0.00  0.00    +0.031 A 
ATOM      6  C   UNL     1      -6.054   1.054   1.361  0.00  0.00    +0.064 C 
ATOM      7  N   UNL     1      -4.942  -1.213   1.067  0.00  0.00    -0.349 N 
ATOM      8  C   UNL     1      -5.892  -1.961   1.894  0.00  0.00    +0.149 C 
ATOM      9  C   UNL     1      -3.865  -1.759   0.431  0.00  0.00    +0.043 A 
ATOM     10  C   UNL     1      -3.470  -3.212   0.471  0.00  0.00    +0.065 C 
ATOM     11  C   UNL     1      -3.212  -0.791  -0.236  0.00  0.00    +0.140 A 
BRANCH   4  12
ATOM     12  C   UNL     1      -3.628   1.792  -0.505  0.00  0.00    +0.343 C 
ATOM     13  O   UNL     1      -4.089   2.161  -1.568  0.00  0.00    -0.245 OA
BRANCH  12  14
ATOM     14  O   UNL     1      -2.822   2.610   0.200  0.00  0.00    -0.461 OA
BRANCH  14  16
ATOM     15  C   UNL     1      -1.577   4.648   0.676  0.00  0.00    +0.048 C 
ATOM     16  C   UNL     1      -2.503   3.931  -0.309  0.00  0.00    +0.229 C 
ENDBRANCH  14  16
ENDBRANCH  12  14
ENDBRANCH   4  12
ENDBRANCH   1  11
BRANCH   1  17
ATOM     17  N   UNL     1      -0.457  -0.755  -0.214  0.00  0.00    -0.176 NA
ATOM     18  C   UNL     1       0.120   0.583  -0.026  0.00  0.00    +0.110 C 
ATOM     19  C   UNL     1       1.618   0.524  -0.320  0.00  0.00    +0.030 C 
ATOM     20  C   UNL     1       2.262  -0.565   0.540  0.00  0.00    +0.078 C 
ATOM     21  C   UNL     1       1.646  -1.922   0.193  0.00  0.00    +0.030 C 
ATOM     22  C   UNL     1       0.145  -1.890   0.497  0.00  0.00    +0.110 C 
BRANCH  20  23
ATOM     23  C   UNL     1       3.745  -0.604   0.274  0.00  0.00    +0.221 C 
ATOM     24  N   UNL     1       4.500   0.487   0.509  0.00  0.00    -0.270 N 
ATOM     25  H   UNL     1       4.080   1.319   0.776  0.00  0.00    +0.156 HD
ATOM     26  C   UNL     1       5.886   0.420   0.367  0.00  0.00    +0.125 A 
ATOM     27  N   UNL     1       6.444  -0.689  -0.093  0.00  0.00    -0.240 NA
ATOM     28  C   UNL     1       7.750  -0.792  -0.248  0.00  0.00    +0.113 A 
ATOM     29  C   UNL     1       8.587   0.256   0.078  0.00  0.00    +0.020 A 
ATOM     30  C   UNL     1       8.041   1.435   0.569  0.00  0.00    +0.005 A 
ATOM     31  C   UNL     1       6.668   1.515   0.715  0.00  0.00    +0.044 A 
ATOM     32  O   UNL     1       4.258  -1.617  -0.151  0.00  0.00    -0.275 OA
ENDBRANCH  20  23
ENDBRANCH   1  17
TORSDOF 6
