REMARK  Name = m362
REMARK  9 active torsions:
REMARK  status: ('A' for Active; 'I' for Inactive)
REMARK    1  A    between atoms: C_1  and  C_2
REMARK    2  A    between atoms: C_2  and  O_3
REMARK    3  A    between atoms: O_3  and  C_4
REMARK    4  A    between atoms: C_4  and  C_6
REMARK    5  A    between atoms: C_7  and  N_8
REMARK    6  A    between atoms: C_9  and  C_11
REMARK    7  A    between atoms: C_13  and  C_14
REMARK    8  A    between atoms: C_27  and  C_28
REMARK    9  A    between atoms: C_29  and  C_30
REMARK                            x       y       z     vdW  Elec       q    Type
REMARK                         _______ _______ _______ _____ _____    ______ ____
ROOT
ATOM      1  N   UNL     1      -2.104  -0.142  -0.201  0.00  0.00    -0.274 N 
ATOM      2  H   UNL     1      -1.990   0.781  -0.475  0.00  0.00    +0.156 HD
ATOM      3  C   UNL     1      -1.024  -0.919   0.012  0.00  0.00    +0.270 C 
ATOM      4  O   UNL     1      -1.166  -2.076   0.355  0.00  0.00    -0.268 OA
ENDROOT
BRANCH   1  11
ATOM      5  C   UNL     1      -4.600  -0.024  -0.200  0.00  0.00    +0.091 A 
ATOM      6  C   UNL     1      -5.783  -0.812   0.056  0.00  0.00    -0.025 A 
ATOM      7  C   UNL     1      -7.164  -0.227  -0.095  0.00  0.00    +0.045 C 
ATOM      8  C   UNL     1      -5.600  -2.092   0.425  0.00  0.00    -0.008 A 
ATOM      9  C   UNL     1      -6.644  -3.130   0.747  0.00  0.00    +0.052 C 
ATOM     10  S   UNL     1      -3.828  -2.263   0.450  0.00  0.00    -0.078 S 
ATOM     11  C   UNL     1      -3.376  -0.662  -0.030  0.00  0.00    +0.087 A 
BRANCH   5  12
ATOM     12  C   UNL     1      -4.686   1.378  -0.613  0.00  0.00    +0.342 C 
ATOM     13  O   UNL     1      -4.736   1.663  -1.795  0.00  0.00    -0.245 OA
BRANCH  12  14
ATOM     14  O   UNL     1      -4.708   2.355   0.317  0.00  0.00    -0.461 OA
BRANCH  14  16
ATOM     15  C   UNL     1      -4.802   4.642   1.148  0.00  0.00    +0.048 C 
ATOM     16  C   UNL     1      -4.793   3.745  -0.092  0.00  0.00    +0.229 C 
ENDBRANCH  14  16
ENDBRANCH  12  14
ENDBRANCH   5  12
ENDBRANCH   1  11
BRANCH   3  17
ATOM     17  C   UNL     1       0.339  -0.363  -0.171  0.00  0.00    +0.169 A 
ATOM     18  N   UNL     1       0.646   0.857  -0.541  0.00  0.00    -0.073 NA
ATOM     19  O   UNL     1       1.843   1.019  -0.602  0.00  0.00    -0.354 OA
ATOM     20  C   UNL     1       2.514  -0.101  -0.280  0.00  0.00    +0.168 A 
ATOM     21  C   UNL     1       1.569  -1.046   0.013  0.00  0.00    +0.086 A 
BRANCH  20  22
ATOM     22  C   UNL     1       3.980  -0.277  -0.250  0.00  0.00    +0.024 A 
ATOM     23  C   UNL     1       4.798   0.739   0.240  0.00  0.00    +0.061 A 
ATOM     24  C   UNL     1       6.179   0.578   0.278  0.00  0.00    +0.163 A 
ATOM     25  O   UNL     1       6.901   1.622   0.762  0.00  0.00    -0.485 OA
ATOM     26  C   UNL     1       8.194   1.156   1.131  0.00  0.00    +0.270 C 
ATOM     27  C   UNL     1       8.779   0.381  -0.055  0.00  0.00    +0.270 C 
ATOM     28  O   UNL     1       8.079  -0.853  -0.169  0.00  0.00    -0.485 OA
ATOM     29  C   UNL     1       6.744  -0.602  -0.182  0.00  0.00    +0.162 A 
ATOM     30  C   UNL     1       5.922  -1.614  -0.681  0.00  0.00    +0.050 A 
ATOM     31  C   UNL     1       4.556  -1.460  -0.718  0.00  0.00    +0.015 A 
ENDBRANCH  20  22
ENDBRANCH   3  17
TORSDOF 6
