REMARK  Name = m363
REMARK  6 active torsions:
REMARK  status: ('A' for Active; 'I' for Inactive)
REMARK    1  A    between atoms: C_1  and  C_2
REMARK    2  A    between atoms: C_2  and  C_3
REMARK    3  A    between atoms: C_7  and  N_8
REMARK    4  A    between atoms: N_17  and  C_18
REMARK    5  A    between atoms: C_18  and  C_19
REMARK    6  A    between atoms: C_21  and  C_22
REMARK                            x       y       z     vdW  Elec       q    Type
REMARK                         _______ _______ _______ _____ _____    ______ ____
ROOT
ATOM      1  C   UNL     1       0.831   1.035   1.798  0.00  0.00    +0.047 C 
ATOM      2  C   UNL     1       1.201   0.304   0.506  0.00  0.00    +0.135 C 
ATOM      3  C   UNL     1       0.102   0.458  -0.527  0.00  0.00    +0.251 C 
ATOM      4  O   UNL     1      -0.305   1.488  -1.020  0.00  0.00    -0.272 OA
ATOM      5  N   UNL     1      -0.332  -0.796  -0.781  0.00  0.00    -0.218 N 
ATOM      6  C   UNL     1       0.336  -1.706  -0.062  0.00  0.00    +0.310 C 
ATOM      7  O   UNL     1       0.124  -2.901  -0.120  0.00  0.00    -0.252 OA
ATOM      8  N   UNL     1       1.267  -1.150   0.733  0.00  0.00    -0.281 N 
ATOM      9  H   UNL     1       1.866  -1.615   1.338  0.00  0.00    +0.152 HD
ENDROOT
BRANCH   2  10
ATOM     10  C   UNL     1       2.512   0.817  -0.034  0.00  0.00    -0.014 A 
ATOM     11  C   UNL     1       3.698   0.237   0.370  0.00  0.00    +0.034 A 
ATOM     12  C   UNL     1       4.905   0.706  -0.131  0.00  0.00    +0.069 A 
ATOM     13  C   UNL     1       4.915   1.764  -1.030  0.00  0.00    +0.028 A 
ATOM     14  C   UNL     1       3.725   2.343  -1.426  0.00  0.00    +0.002 A 
ATOM     15  C   UNL     1       2.525   1.871  -0.929  0.00  0.00    +0.006 A 
BRANCH  12  16
ATOM     16  N   UNL     1       6.111   0.116   0.274  0.00  0.00    -0.200 N 
ATOM     17  N   UNL     1       6.367  -1.252   0.477  0.00  0.00    -0.039 NA
ATOM     18  N   UNL     1       7.600  -1.347   0.840  0.00  0.00    -0.023 NA
ATOM     19  N   UNL     1       8.138  -0.182   0.893  0.00  0.00    -0.116 NA
ATOM     20  C   UNL     1       7.275   0.740   0.558  0.00  0.00    +0.250 A 
ENDBRANCH  12  16
ENDBRANCH   2  10
BRANCH   5  21
ATOM     21  C   UNL     1      -1.401  -1.120  -1.729  0.00  0.00    +0.176 C 
BRANCH  21  22
ATOM     22  C   UNL     1      -2.727  -1.112  -1.012  0.00  0.00    +0.102 A 
ATOM     23  N   UNL     1      -3.260  -2.099  -0.350  0.00  0.00    -0.081 NA
ATOM     24  O   UNL     1      -4.332  -1.798   0.123  0.00  0.00    -0.354 OA
ATOM     25  C   UNL     1      -4.666  -0.532  -0.182  0.00  0.00    +0.168 A 
ATOM     26  C   UNL     1      -3.635  -0.036  -0.932  0.00  0.00    +0.077 A 
BRANCH  25  27
ATOM     27  C   UNL     1      -5.900   0.181   0.213  0.00  0.00    +0.020 A 
ATOM     28  C   UNL     1      -5.842   1.521   0.598  0.00  0.00    +0.011 A 
ATOM     29  C   UNL     1      -6.998   2.182   0.961  0.00  0.00    +0.001 A 
ATOM     30  C   UNL     1      -8.210   1.515   0.955  0.00  0.00    +0.000 A 
ATOM     31  C   UNL     1      -8.274   0.185   0.579  0.00  0.00    +0.001 A 
ATOM     32  C   UNL     1      -7.126  -0.486   0.209  0.00  0.00    +0.011 A 
ENDBRANCH  25  27
ENDBRANCH  21  22
ENDBRANCH   5  21
TORSDOF 5
