REMARK  Name = m364
REMARK  8 active torsions:
REMARK  status: ('A' for Active; 'I' for Inactive)
REMARK    1  A    between atoms: C_1  and  C_2
REMARK    2  A    between atoms: C_4  and  C_5
REMARK    3  A    between atoms: C_5  and  C_6
REMARK    4  A    between atoms: C_12  and  C_13
REMARK    5  A    between atoms: C_14  and  C_15
REMARK    6  A    between atoms: N_17  and  C_18
REMARK    7  A    between atoms: C_18  and  C_19
REMARK    8  A    between atoms: C_19  and  O_20
REMARK                            x       y       z     vdW  Elec       q    Type
REMARK                         _______ _______ _______ _____ _____    ______ ____
ROOT
ATOM      1  C   UNL     1       1.986   0.961   0.337  0.00  0.00    +0.011 A 
ATOM      2  C   UNL     1       2.114   2.356   0.222  0.00  0.00    +0.014 A 
ATOM      3  C   UNL     1       3.310   2.811  -0.384  0.00  0.00    +0.109 A 
ATOM      4  N   UNL     1       3.575   4.086  -0.557  0.00  0.00    -0.248 NA
ATOM      5  C   UNL     1       2.731   5.020  -0.165  0.00  0.00    +0.112 A 
ATOM      6  C   UNL     1       1.534   4.673   0.445  0.00  0.00    +0.020 A 
ATOM      7  S   UNL     1       4.172   1.306  -0.767  0.00  0.00    -0.064 S 
ATOM      8  C   UNL     1       1.211   3.364   0.649  0.00  0.00    +0.012 A 
ATOM      9  C   UNL     1       2.971   0.149  -0.130  0.00  0.00    +0.082 A 
ENDROOT
BRANCH   1  13
ATOM     10  C   UNL     1      -2.557  -0.665   0.118  0.00  0.00    +0.222 C 
ATOM     11  N   UNL     1      -1.293  -0.877   0.535  0.00  0.00    -0.296 N 
ATOM     12  C   UNL     1      -0.150  -0.222  -0.124  0.00  0.00    +0.144 C 
ATOM     13  C   UNL     1       0.755   0.365   0.971  0.00  0.00    +0.167 C 
ATOM     14  O   UNL     1       1.139  -0.669   1.876  0.00  0.00    -0.369 OA
ATOM     15  C   UNL     1      -0.023  -1.063   2.603  0.00  0.00    +0.179 C 
ATOM     16  C   UNL     1      -1.000  -1.778   1.663  0.00  0.00    +0.136 C 
ATOM     17  O   UNL     1      -2.771   0.081  -0.814  0.00  0.00    -0.275 OA
BRANCH  10  18
ATOM     18  C   UNL     1      -3.704  -1.356   0.809  0.00  0.00    +0.151 C 
BRANCH  18  23
ATOM     19  C   UNL     1      -6.996   2.071  -0.755  0.00  0.00    +0.073 C 
ATOM     20  C   UNL     1      -6.455   0.682  -0.531  0.00  0.00    +0.076 A 
ATOM     21  S   UNL     1      -7.167  -0.846  -0.950  0.00  0.00    -0.081 S 
ATOM     22  C   UNL     1      -5.858  -1.889  -0.324  0.00  0.00    +0.070 A 
ATOM     23  C   UNL     1      -5.000  -0.953   0.156  0.00  0.00    +0.057 A 
ATOM     24  N   UNL     1      -5.329   0.317   0.036  0.00  0.00    -0.249 NA
ENDBRANCH  18  23
ENDBRANCH  10  18
ENDBRANCH   1  13
BRANCH   9  25
ATOM     25  C   UNL     1       3.033  -1.319  -0.115  0.00  0.00    +0.251 C 
ATOM     26  N   UNL     1       4.104  -1.954  -0.630  0.00  0.00    -0.309 N 
ATOM     27  H   UNL     1       4.834  -1.442  -1.011  0.00  0.00    +0.149 HD
ATOM     28  O   UNL     1       2.117  -1.961   0.363  0.00  0.00    -0.270 OA
BRANCH  26  29
ATOM     29  C   UNL     1       4.165  -3.418  -0.615  0.00  0.00    +0.132 C 
BRANCH  29  30
ATOM     30  C   UNL     1       5.476  -3.880  -1.255  0.00  0.00    +0.174 C 
BRANCH  30  31
ATOM     31  O   UNL     1       6.576  -3.447  -0.453  0.00  0.00    -0.393 OA
ATOM     32  H   UNL     1       7.380  -3.758  -0.891  0.00  0.00    +0.209 HD
ENDBRANCH  30  31
ENDBRANCH  29  30
ENDBRANCH  26  29
ENDBRANCH   9  25
TORSDOF 7
