REMARK  Name = m365
REMARK  6 active torsions:
REMARK  status: ('A' for Active; 'I' for Inactive)
REMARK    1  A    between atoms: C_1  and  O_2
REMARK    2  A    between atoms: O_2  and  C_3
REMARK    3  A    between atoms: C_8  and  S_9
REMARK    4  A    between atoms: S_9  and  N_12
REMARK    5  A    between atoms: C_16  and  C_17
REMARK    6  A    between atoms: C_18  and  C_19
REMARK                            x       y       z     vdW  Elec       q    Type
REMARK                         _______ _______ _______ _____ _____    ______ ____
ROOT
ATOM      1  N   UNL     1       1.197   1.363  -0.502  0.00  0.00    -0.171 NA
ATOM      2  C   UNL     1      -0.166   0.896  -0.810  0.00  0.00    +0.146 C 
ATOM      3  C   UNL     1      -0.817   0.438   0.505  0.00  0.00    +0.166 C 
ATOM      4  O   UNL     1      -0.784   1.507   1.450  0.00  0.00    -0.369 OA
ATOM      5  C   UNL     1       0.577   1.712   1.826  0.00  0.00    +0.178 C 
ATOM      6  C   UNL     1       1.358   2.283   0.637  0.00  0.00    +0.137 C 
ENDROOT
BRANCH   3   7
ATOM      7  C   UNL     1      -2.248   0.044   0.243  0.00  0.00    +0.011 A 
ATOM      8  C   UNL     1      -2.609  -1.314   0.207  0.00  0.00    +0.014 A 
ATOM      9  C   UNL     1      -3.978  -1.576  -0.041  0.00  0.00    +0.109 A 
ATOM     10  N   UNL     1      -4.467  -2.794  -0.100  0.00  0.00    -0.248 NA
ATOM     11  C   UNL     1      -3.696  -3.850   0.077  0.00  0.00    +0.112 A 
ATOM     12  C   UNL     1      -2.341  -3.696   0.332  0.00  0.00    +0.020 A 
ATOM     13  S   UNL     1      -4.677   0.047  -0.221  0.00  0.00    -0.064 S 
ATOM     14  C   UNL     1      -1.784  -2.453   0.404  0.00  0.00    +0.012 A 
ATOM     15  C   UNL     1      -3.191   1.000   0.036  0.00  0.00    +0.082 A 
BRANCH  15  16
ATOM     16  C   UNL     1      -3.027   2.461   0.025  0.00  0.00    +0.249 C 
ATOM     17  O   UNL     1      -1.931   2.951   0.220  0.00  0.00    -0.270 OA
ATOM     18  N   UNL     1      -4.091   3.257  -0.200  0.00  0.00    -0.325 N 
ATOM     19  H   UNL     1      -3.982   4.221  -0.207  0.00  0.00    +0.145 HD
ATOM     20  H   UNL     1      -4.965   2.866  -0.356  0.00  0.00    +0.145 HD
ENDBRANCH  15  16
ENDBRANCH   3   7
BRANCH   1  21
ATOM     21  S   UNL     1       2.497   0.878  -1.407  0.00  0.00    +0.064 S 
ATOM     22  O   UNL     1       1.966   0.477  -2.662  0.00  0.00    -0.153 OA
ATOM     23  O   UNL     1       3.493   1.873  -1.215  0.00  0.00    -0.153 OA
BRANCH  21  25
ATOM     24  C   UNL     1       3.697  -0.538   0.600  0.00  0.00    +0.146 A 
ATOM     25  C   UNL     1       3.135  -0.588  -0.667  0.00  0.00    +0.147 A 
ATOM     26  C   UNL     1       3.088  -1.786  -1.354  0.00  0.00    +0.032 A 
ATOM     27  C   UNL     1       3.589  -2.937  -0.774  0.00  0.00    +0.002 A 
ATOM     28  C   UNL     1       4.144  -2.891   0.491  0.00  0.00    +0.004 A 
ATOM     29  C   UNL     1       4.200  -1.695   1.180  0.00  0.00    +0.047 A 
BRANCH  24  31
ATOM     30  C   UNL     1       4.370   0.367   2.534  0.00  0.00    +0.277 C 
ATOM     31  O   UNL     1       3.750   0.640   1.275  0.00  0.00    -0.493 OA
ENDBRANCH  24  31
ENDBRANCH  21  25
ENDBRANCH   1  21
TORSDOF 5
