REMARK  Name = m366
REMARK  9 active torsions:
REMARK  status: ('A' for Active; 'I' for Inactive)
REMARK    1  A    between atoms: C_1  and  N_2
REMARK    2  A    between atoms: N_2  and  C_3
REMARK    3  A    between atoms: C_7  and  C_8
REMARK    4  A    between atoms: C_8  and  N_9
REMARK    5  A    between atoms: C_13  and  C_14
REMARK    6  A    between atoms: C_15  and  C_16
REMARK    7  A    between atoms: N_18  and  C_19
REMARK    8  A    between atoms: C_19  and  C_20
REMARK    9  A    between atoms: C_20  and  O_21
REMARK                            x       y       z     vdW  Elec       q    Type
REMARK                         _______ _______ _______ _____ _____    ______ ____
ROOT
ATOM      1  C   UNL     1      -2.292   0.959  -0.286  0.00  0.00    +0.011 A 
ATOM      2  C   UNL     1      -2.809   2.261  -0.171  0.00  0.00    +0.014 A 
ATOM      3  C   UNL     1      -4.147   2.349   0.283  0.00  0.00    +0.109 A 
ATOM      4  N   UNL     1      -4.769   3.496   0.437  0.00  0.00    -0.248 NA
ATOM      5  C   UNL     1      -4.170   4.641   0.167  0.00  0.00    +0.112 A 
ATOM      6  C   UNL     1      -2.860   4.657  -0.288  0.00  0.00    +0.020 A 
ATOM      7  S   UNL     1      -4.605   0.651   0.533  0.00  0.00    -0.064 S 
ATOM      8  C   UNL     1      -2.170   3.494  -0.466  0.00  0.00    +0.012 A 
ATOM      9  C   UNL     1      -3.067  -0.108   0.040  0.00  0.00    +0.082 A 
ENDROOT
BRANCH   1  12
ATOM     10  N   UNL     1       1.403   0.246  -0.028  0.00  0.00    -0.293 NA
ATOM     11  C   UNL     1       0.012   0.384   0.424  0.00  0.00    +0.121 C 
ATOM     12  C   UNL     1      -0.878   0.747  -0.765  0.00  0.00    +0.164 C 
ATOM     13  O   UNL     1      -0.855  -0.309  -1.725  0.00  0.00    -0.369 OA
ATOM     14  C   UNL     1       0.486  -0.417  -2.200  0.00  0.00    +0.176 C 
ATOM     15  C   UNL     1       1.412  -0.811  -1.048  0.00  0.00    +0.113 C 
BRANCH  10  16
ATOM     16  C   UNL     1       2.170  -0.265   1.116  0.00  0.00    +0.122 C 
BRANCH  16  22
ATOM     17  C   UNL     1       8.379   1.178   0.293  0.00  0.00    +0.132 C 
ATOM     18  N   UNL     1       7.611  -0.024  -0.042  0.00  0.00    -0.306 N 
ATOM     19  C   UNL     1       6.258  -0.084   0.246  0.00  0.00    +0.217 A 
ATOM     20  N   UNL     1       5.578  -1.176  -0.069  0.00  0.00    -0.222 NA
ATOM     21  C   UNL     1       4.285  -1.268   0.198  0.00  0.00    +0.120 A 
ATOM     22  C   UNL     1       3.643  -0.200   0.803  0.00  0.00    +0.003 A 
ATOM     23  C   UNL     1       4.383   0.930   1.114  0.00  0.00    +0.120 A 
ATOM     24  N   UNL     1       5.674   0.955   0.825  0.00  0.00    -0.222 NA
ATOM     25  C   UNL     1       8.274  -1.162  -0.683  0.00  0.00    +0.132 C 
ENDBRANCH  16  22
ENDBRANCH  10  16
ENDBRANCH   1  12
BRANCH   9  26
ATOM     26  C   UNL     1      -2.723  -1.537  -0.002  0.00  0.00    +0.251 C 
ATOM     27  N   UNL     1      -3.635  -2.460   0.364  0.00  0.00    -0.309 N 
ATOM     28  H   UNL     1      -4.517  -2.182   0.655  0.00  0.00    +0.149 HD
ATOM     29  O   UNL     1      -1.617  -1.886  -0.366  0.00  0.00    -0.270 OA
BRANCH  27  30
ATOM     30  C   UNL     1      -3.292  -3.884   0.322  0.00  0.00    +0.132 C 
BRANCH  30  31
ATOM     31  C   UNL     1      -4.493  -4.711   0.783  0.00  0.00    +0.174 C 
BRANCH  31  32
ATOM     32  O   UNL     1      -5.566  -4.553  -0.147  0.00  0.00    -0.393 OA
ATOM     33  H   UNL     1      -6.301  -5.089   0.180  0.00  0.00    +0.209 HD
ENDBRANCH  31  32
ENDBRANCH  30  31
ENDBRANCH  27  30
ENDBRANCH   9  26
TORSDOF 7
