REMARK  Name = m367
REMARK  8 active torsions:
REMARK  status: ('A' for Active; 'I' for Inactive)
REMARK    1  A    between atoms: C_1  and  C_2
REMARK    2  A    between atoms: C_2  and  C_3
REMARK    3  A    between atoms: C_3  and  C_4
REMARK    4  A    between atoms: C_3  and  N_5
REMARK    5  A    between atoms: C_15  and  N_16
REMARK    6  A    between atoms: N_16  and  C_17
REMARK    7  A    between atoms: C_22  and  C_23
REMARK    8  A    between atoms: C_27  and  C_28
REMARK                            x       y       z     vdW  Elec       q    Type
REMARK                         _______ _______ _______ _____ _____    ______ ____
ROOT
ATOM      1  N   UNL     1      -6.305   0.224   0.310  0.00  0.00    -0.297 N 
ATOM      2  H   UNL     1      -5.784   1.028   0.461  0.00  0.00    +0.151 HD
ATOM      3  C   UNL     1      -5.699  -0.980   0.300  0.00  0.00    +0.303 C 
ATOM      4  N   UNL     1      -4.357  -1.060   0.394  0.00  0.00    -0.283 N 
ATOM      5  C   UNL     1      -3.550   0.148   0.616  0.00  0.00    +0.128 C 
ATOM      6  C   UNL     1      -2.500   0.251  -0.491  0.00  0.00    +0.126 C 
ATOM      7  N   UNL     1      -1.817  -1.044  -0.615  0.00  0.00    -0.305 N 
ATOM      8  C   UNL     1      -0.437  -1.126  -0.519  0.00  0.00    +0.184 A 
ATOM      9  S   UNL     1       0.611  -2.568  -0.627  0.00  0.00    -0.013 S 
ATOM     10  C   UNL     1       2.170  -1.744  -0.402  0.00  0.00    +0.199 A 
ATOM     11  N   UNL     1       1.793  -0.433  -0.252  0.00  0.00    -0.190 N 
ATOM     12  C   UNL     1       2.975   0.268  -0.065  0.00  0.00    +0.150 A 
ATOM     13  C   UNL     1       3.999  -0.631  -0.109  0.00  0.00    +0.114 A 
ATOM     14  N   UNL     1       3.462  -1.862  -0.318  0.00  0.00    -0.218 NA
ATOM     15  N   UNL     1       0.429  -0.170  -0.322  0.00  0.00    -0.140 NA
ATOM     16  C   UNL     1      -2.624  -2.251  -0.842  0.00  0.00    +0.126 C 
ATOM     17  C   UNL     1      -3.675  -2.355   0.270  0.00  0.00    +0.128 C 
ATOM     18  O   UNL     1      -6.364  -1.994   0.208  0.00  0.00    -0.253 OA
ENDROOT
BRANCH  13  19
ATOM     19  C   UNL     1       5.439  -0.323   0.045  0.00  0.00    +0.004 A 
ATOM     20  C   UNL     1       6.262  -1.174   0.782  0.00  0.00    +0.013 A 
ATOM     21  C   UNL     1       7.605  -0.883   0.918  0.00  0.00    -0.050 A 
ATOM     22  C   UNL     1       8.497  -1.804   1.709  0.00  0.00    +0.044 C 
ATOM     23  C   UNL     1       8.131   0.255   0.334  0.00  0.00    +0.003 A 
ATOM     24  C   UNL     1       7.318   1.106  -0.394  0.00  0.00    +0.001 A 
ATOM     25  C   UNL     1       5.976   0.824  -0.541  0.00  0.00    +0.010 A 
ENDBRANCH  13  19
BRANCH   1  26
ATOM     26  C   UNL     1      -7.751   0.318   0.091  0.00  0.00    +0.071 C 
ATOM     27  C   UNL     1      -8.038   0.348  -1.412  0.00  0.00    +0.028 C 
BRANCH  26  29
ATOM     28  C   UNL     1      -8.107   1.514   2.255  0.00  0.00    +0.005 C 
ATOM     29  C   UNL     1      -8.282   1.599   0.737  0.00  0.00    +0.019 C 
ENDBRANCH  26  29
ENDBRANCH   1  26
BRANCH  12  30
ATOM     30  N   UNL     1       3.095   1.646   0.133  0.00  0.00    -0.324 N 
ATOM     31  H   UNL     1       3.440   1.775   1.072  0.00  0.00    +0.148 HD
BRANCH  30  32
ATOM     32  C   UNL     1       1.734   2.197   0.103  0.00  0.00    +0.072 C 
ATOM     33  C   UNL     1       1.335   2.541  -1.347  0.00  0.00    +0.022 C 
ATOM     34  C   UNL     1       0.503   3.841  -1.214  0.00  0.00    +0.002 C 
ATOM     35  C   UNL     1       1.251   4.612  -0.098  0.00  0.00    +0.002 C 
ATOM     36  C   UNL     1       1.681   3.514   0.897  0.00  0.00    +0.022 C 
ENDBRANCH  30  32
ENDBRANCH  12  30
TORSDOF 5
