REMARK  Name = m368
REMARK  9 active torsions:
REMARK  status: ('A' for Active; 'I' for Inactive)
REMARK    1  A    between atoms: C_1  and  O_2
REMARK    2  A    between atoms: O_2  and  C_3
REMARK    3  A    between atoms: C_8  and  C_9
REMARK    4  A    between atoms: C_11  and  C_12
REMARK    5  A    between atoms: C_12  and  N_13
REMARK    6  A    between atoms: C_16  and  C_17
REMARK    7  A    between atoms: C_19  and  C_20
REMARK    8  A    between atoms: C_28  and  C_29
REMARK    9  A    between atoms: C_30  and  C_31
REMARK                            x       y       z     vdW  Elec       q    Type
REMARK                         _______ _______ _______ _____ _____    ______ ____
ROOT
ATOM      1  N   UNL     1       0.168   2.288  -0.734  0.00  0.00    -0.242 N 
ATOM      2  C   UNL     1      -0.651   1.329  -1.211  0.00  0.00    +0.069 A 
ATOM      3  C   UNL     1      -0.398   0.424  -2.389  0.00  0.00    +0.068 C 
ATOM      4  C   UNL     1      -1.757   1.339  -0.404  0.00  0.00    +0.172 A 
ATOM      5  N   UNL     1      -1.544   2.309   0.507  0.00  0.00    -0.124 NA
ATOM      6  N   UNL     1      -0.397   2.845   0.279  0.00  0.00    -0.064 NA
ENDROOT
BRANCH   4   7
ATOM      7  C   UNL     1      -2.944   0.469  -0.513  0.00  0.00    +0.281 A 
ATOM      8  O   UNL     1      -3.151  -0.491  -1.429  0.00  0.00    -0.331 OA
ATOM      9  N   UNL     1      -4.225  -1.021  -1.236  0.00  0.00    -0.056 NA
ATOM     10  C   UNL     1      -4.824  -0.475  -0.210  0.00  0.00    +0.204 A 
ATOM     11  N   UNL     1      -4.009   0.489   0.268  0.00  0.00    -0.186 NA
BRANCH  10  12
ATOM     12  C   UNL     1      -6.156  -0.847   0.330  0.00  0.00    +0.041 A 
ATOM     13  C   UNL     1      -6.681  -0.185   1.438  0.00  0.00    +0.122 A 
ATOM     14  N   UNL     1      -7.865  -0.510   1.915  0.00  0.00    -0.263 NA
ATOM     15  C   UNL     1      -8.591  -1.471   1.379  0.00  0.00    +0.111 A 
ATOM     16  C   UNL     1      -8.138  -2.179   0.280  0.00  0.00    +0.020 A 
ATOM     17  C   UNL     1      -6.902  -1.870  -0.261  0.00  0.00    +0.014 A 
ENDBRANCH  10  12
ENDBRANCH   4   7
BRANCH   1  18
ATOM     18  C   UNL     1       1.480   2.641  -1.281  0.00  0.00    +0.204 C 
BRANCH  18  23
ATOM     19  C   UNL     1       3.917   0.208  -0.175  0.00  0.00    +0.231 A 
ATOM     20  O   UNL     1       4.069   1.141   0.782  0.00  0.00    -0.440 OA
ATOM     21  C   UNL     1       3.216   2.149   0.511  0.00  0.00    +0.128 A 
ATOM     22  C   UNL     1       3.042   3.412   1.315  0.00  0.00    +0.088 C 
ATOM     23  C   UNL     1       2.545   1.816  -0.606  0.00  0.00    +0.104 A 
ATOM     24  N   UNL     1       2.992   0.617  -1.012  0.00  0.00    -0.212 NA
BRANCH  19  26
ATOM     25  C   UNL     1       5.635  -1.380   0.689  0.00  0.00    +0.132 A 
ATOM     26  C   UNL     1       4.660  -1.065  -0.265  0.00  0.00    +0.078 A 
ATOM     27  C   UNL     1       4.403  -1.955  -1.309  0.00  0.00    +0.017 A 
ATOM     28  C   UNL     1       5.101  -3.142  -1.388  0.00  0.00    +0.001 A 
ATOM     29  C   UNL     1       6.060  -3.452  -0.439  0.00  0.00    +0.004 A 
ATOM     30  C   UNL     1       6.327  -2.577   0.596  0.00  0.00    +0.046 A 
BRANCH  25  32
ATOM     31  C   UNL     1       6.921  -1.119   2.502  0.00  0.00    +0.277 C 
ATOM     32  O   UNL     1       5.898  -0.518   1.706  0.00  0.00    -0.494 OA
ENDBRANCH  25  32
ENDBRANCH  19  26
ENDBRANCH  18  23
ENDBRANCH   1  18
TORSDOF 6
