REMARK  Name = m369
REMARK  7 active torsions:
REMARK  status: ('A' for Active; 'I' for Inactive)
REMARK    1  A    between atoms: C_1  and  O_2
REMARK    2  A    between atoms: O_2  and  C_3
REMARK    3  A    between atoms: C_8  and  C_9
REMARK    4  A    between atoms: C_11  and  N_12
REMARK    5  A    between atoms: C_13  and  C_15
REMARK    6  A    between atoms: C_15  and  N_16
REMARK    7  A    between atoms: N_16  and  C_17
REMARK                            x       y       z     vdW  Elec       q    Type
REMARK                         _______ _______ _______ _____ _____    ______ ____
ROOT
ATOM      1  C   UNL     1       2.441   0.460  -0.496  0.00  0.00    +0.098 A 
ATOM      2  N   UNL     1       2.749   1.575  -1.125  0.00  0.00    -0.172 NA
ATOM      3  N   UNL     1       1.595   2.364  -1.213  0.00  0.00    -0.263 N 
ATOM      4  H   UNL     1       1.533   3.238  -1.629  0.00  0.00    +0.190 HD
ATOM      5  C   UNL     1       0.580   1.693  -0.609  0.00  0.00    +0.121 A 
ATOM      6  C   UNL     1       1.076   0.512  -0.156  0.00  0.00    +0.073 A 
ENDROOT
BRANCH   1   8
ATOM      7  C   UNL     1       4.685  -0.384   0.204  0.00  0.00    +0.129 A 
ATOM      8  C   UNL     1       3.372  -0.654  -0.192  0.00  0.00    +0.044 A 
ATOM      9  C   UNL     1       2.945  -1.974  -0.311  0.00  0.00    +0.014 A 
ATOM     10  C   UNL     1       3.815  -3.008  -0.027  0.00  0.00    +0.001 A 
ATOM     11  C   UNL     1       5.112  -2.737   0.371  0.00  0.00    +0.004 A 
ATOM     12  C   UNL     1       5.548  -1.431   0.486  0.00  0.00    +0.046 A 
BRANCH   7  14
ATOM     13  C   UNL     1       6.476   0.848   0.740  0.00  0.00    +0.277 C 
ATOM     14  O   UNL     1       5.112   0.901   0.318  0.00  0.00    -0.494 OA
ENDBRANCH   7  14
ENDBRANCH   1   8
BRANCH   5  15
ATOM     15  N   UNL     1      -0.736   2.138  -0.476  0.00  0.00    -0.269 N 
ATOM     16  H   UNL     1      -0.994   3.001  -0.835  0.00  0.00    +0.156 HD
ATOM     17  C   UNL     1      -1.648   1.368   0.150  0.00  0.00    +0.236 C 
ATOM     18  O   UNL     1      -1.325   0.288   0.598  0.00  0.00    -0.274 OA
BRANCH  17  19
ATOM     19  C   UNL     1      -3.069   1.848   0.293  0.00  0.00    +0.202 C 
BRANCH  19  20
ATOM     20  N   UNL     1      -3.857   0.839   1.004  0.00  0.00    -0.308 N 
ATOM     21  C   UNL     1      -4.511  -0.160   0.293  0.00  0.00    +0.140 A 
ATOM     22  N   UNL     1      -5.300  -1.019   0.926  0.00  0.00    -0.237 NA
ATOM     23  C   UNL     1      -5.925  -1.965   0.245  0.00  0.00    +0.132 A 
ATOM     24  C   UNL     1      -5.749  -2.067  -1.121  0.00  0.00    +0.130 A 
ATOM     25  N   UNL     1      -4.959  -1.216  -1.756  0.00  0.00    -0.258 NA
ATOM     26  C   UNL     1      -4.336  -0.266  -1.085  0.00  0.00    +0.154 A 
ATOM     27  C   UNL     1      -3.954   0.882   2.466  0.00  0.00    +0.131 C 
ENDBRANCH  19  20
ENDBRANCH  17  19
ENDBRANCH   5  15
TORSDOF 5
