REMARK  Name = m370
REMARK  7 active torsions:
REMARK  status: ('A' for Active; 'I' for Inactive)
REMARK    1  A    between atoms: C_2  and  C_16
REMARK    2  A    between atoms: N_3  and  C_4
REMARK    3  A    between atoms: C_8  and  C_9
REMARK    4  A    between atoms: N_11  and  C_12
REMARK    5  A    between atoms: C_19  and  N_20
REMARK    6  A    between atoms: N_20  and  S_21
REMARK    7  A    between atoms: S_21  and  C_24
REMARK                            x       y       z     vdW  Elec       q    Type
REMARK                         _______ _______ _______ _____ _____    ______ ____
ROOT
ATOM      1  C   UNL     1       0.253  -1.674   0.720  0.00  0.00    +0.037 A 
ATOM      2  C   UNL     1      -0.476  -2.295  -0.298  0.00  0.00    +0.015 A 
ATOM      3  C   UNL     1      -1.829  -2.499  -0.148  0.00  0.00    +0.025 A 
ATOM      4  C   UNL     1      -2.473  -2.077   1.012  0.00  0.00    +0.048 A 
ATOM      5  C   UNL     1      -1.751  -1.453   2.025  0.00  0.00    +0.025 A 
ATOM      6  C   UNL     1      -0.398  -1.252   1.884  0.00  0.00    +0.015 A 
ENDROOT
BRANCH   1   8
ATOM      7  O   UNL     1       2.336  -0.915   1.450  0.00  0.00    -0.270 OA
ATOM      8  C   UNL     1       1.704  -1.459   0.565  0.00  0.00    +0.248 C 
ATOM      9  N   UNL     1       2.330  -1.872  -0.554  0.00  0.00    -0.281 N 
ATOM     10  H   UNL     1       1.830  -2.324  -1.252  0.00  0.00    +0.155 HD
BRANCH   9  11
ATOM     11  C   UNL     1       3.702  -1.647  -0.712  0.00  0.00    +0.034 A 
ATOM     12  C   UNL     1       4.279  -0.495  -0.201  0.00  0.00    +0.036 A 
ATOM     13  C   UNL     1       5.648  -0.278  -0.356  0.00  0.00    +0.038 A 
ATOM     14  C   UNL     1       6.426  -1.218  -1.033  0.00  0.00    +0.013 A 
ATOM     15  C   UNL     1       5.841  -2.360  -1.543  0.00  0.00    +0.003 A 
ATOM     16  C   UNL     1       4.486  -2.577  -1.384  0.00  0.00    +0.023 A 
BRANCH  13  17
ATOM     17  C   UNL     1       6.272   0.946   0.190  0.00  0.00    +0.244 C 
ATOM     18  N   UNL     1       7.594   1.156   0.035  0.00  0.00    -0.308 N 
ATOM     19  H   UNL     1       8.136   0.503  -0.436  0.00  0.00    +0.149 HD
ATOM     20  O   UNL     1       5.592   1.763   0.780  0.00  0.00    -0.270 OA
BRANCH  18  21
ATOM     21  C   UNL     1       8.212   2.369   0.576  0.00  0.00    +0.073 C 
ATOM     22  C   UNL     1       9.218   3.105  -0.311  0.00  0.00    +0.024 C 
ATOM     23  C   UNL     1       9.705   2.314   0.905  0.00  0.00    +0.024 C 
ENDBRANCH  18  21
ENDBRANCH  13  17
ENDBRANCH   9  11
ENDBRANCH   1   8
BRANCH   4  24
ATOM     24  N   UNL     1      -3.841  -2.280   1.158  0.00  0.00    -0.216 N 
ATOM     25  H   UNL     1      -4.193  -2.636   1.988  0.00  0.00    +0.174 HD
BRANCH  24  26
ATOM     26  S   UNL     1      -4.870  -1.911  -0.087  0.00  0.00    +0.072 S 
ATOM     27  O   UNL     1      -6.181  -2.094   0.430  0.00  0.00    -0.150 OA
ATOM     28  O   UNL     1      -4.339  -2.562  -1.232  0.00  0.00    -0.150 OA
BRANCH  26  29
ATOM     29  C   UNL     1      -4.717  -0.185  -0.403  0.00  0.00    +0.112 A 
ATOM     30  C   UNL     1      -5.452   0.721   0.333  0.00  0.00    +0.078 A 
ATOM     31  C   UNL     1      -5.336   2.090   0.097  0.00  0.00    +0.164 A 
ATOM     32  O   UNL     1      -6.104   2.909   0.861  0.00  0.00    -0.485 OA
ATOM     33  C   UNL     1      -5.566   4.227   0.806  0.00  0.00    +0.270 C 
ATOM     34  C   UNL     1      -5.377   4.605  -0.668  0.00  0.00    +0.270 C 
ATOM     35  O   UNL     1      -4.284   3.852  -1.183  0.00  0.00    -0.485 OA
ATOM     36  C   UNL     1      -4.476   2.540  -0.890  0.00  0.00    +0.162 A 
ATOM     37  C   UNL     1      -3.744   1.617  -1.636  0.00  0.00    +0.051 A 
ATOM     38  C   UNL     1      -3.864   0.265  -1.394  0.00  0.00    +0.032 A 
ENDBRANCH  26  29
ENDBRANCH  24  26
ENDBRANCH   4  24
TORSDOF 7
