REMARK  Name = m371
REMARK  7 active torsions:
REMARK  status: ('A' for Active; 'I' for Inactive)
REMARK    1  A    between atoms: C_1  and  C_2
REMARK    2  A    between atoms: C_4  and  C_5
REMARK    3  A    between atoms: C_6  and  C_7
REMARK    4  A    between atoms: C_8  and  C_9
REMARK    5  A    between atoms: N_11  and  C_12
REMARK    6  A    between atoms: C_16  and  C_17
REMARK    7  A    between atoms: N_19  and  C_20
REMARK                            x       y       z     vdW  Elec       q    Type
REMARK                         _______ _______ _______ _____ _____    ______ ____
ROOT
ATOM      1  C   UNL     1       1.020   3.441   0.305  0.00  0.00    +0.067 C 
ATOM      2  C   UNL     1       1.445   2.000   0.181  0.00  0.00    +0.058 A 
ATOM      3  C   UNL     1       0.505   0.980   0.087  0.00  0.00    +0.097 A 
ATOM      4  S   UNL     1       1.578  -0.444  -0.035  0.00  0.00    -0.062 S 
ATOM      5  C   UNL     1       3.091   0.403   0.055  0.00  0.00    +0.115 A 
ATOM      6  N   UNL     1       2.707   1.668   0.164  0.00  0.00    -0.243 NA
ENDROOT
BRANCH   5   7
ATOM      7  C   UNL     1       4.459  -0.146   0.021  0.00  0.00    +0.078 A 
ATOM      8  C   UNL     1       4.706  -1.594   0.027  0.00  0.00    +0.277 A 
ATOM      9  O   UNL     1       3.778  -2.385   0.057  0.00  0.00    -0.265 OA
ATOM     10  N   UNL     1       5.982  -2.028  -0.011  0.00  0.00    -0.232 N 
ATOM     11  C   UNL     1       6.245  -3.469  -0.011  0.00  0.00    +0.176 C 
ATOM     12  N   UNL     1       6.971  -1.213  -0.043  0.00  0.00    -0.173 NA
ATOM     13  C   UNL     1       6.840   0.083  -0.046  0.00  0.00    +0.062 A 
ATOM     14  C   UNL     1       8.072   0.951  -0.084  0.00  0.00    +0.068 C 
ATOM     15  C   UNL     1       5.577   0.685  -0.014  0.00  0.00    -0.013 A 
ATOM     16  C   UNL     1       5.430   2.184  -0.017  0.00  0.00    +0.046 C 
ENDBRANCH   5   7
BRANCH   3  17
ATOM     17  C   UNL     1      -0.958   1.053   0.081  0.00  0.00    +0.257 C 
ATOM     18  N   UNL     1      -1.689  -0.074  -0.029  0.00  0.00    -0.280 N 
ATOM     19  H   UNL     1      -1.249  -0.939  -0.029  0.00  0.00    +0.155 HD
ATOM     20  O   UNL     1      -1.514   2.132   0.176  0.00  0.00    -0.269 OA
BRANCH  18  21
ATOM     21  C   UNL     1      -3.083   0.003  -0.145  0.00  0.00    +0.052 A 
ATOM     22  C   UNL     1      -3.888  -0.987   0.397  0.00  0.00    +0.136 A 
ATOM     23  N   UNL     1      -5.202  -0.918   0.296  0.00  0.00    -0.238 NA
ATOM     24  C   UNL     1      -5.800   0.083  -0.330  0.00  0.00    +0.121 A 
ATOM     25  N   UNL     1      -7.189   0.109  -0.416  0.00  0.00    -0.315 N 
ATOM     26  C   UNL     1      -7.701   0.149   0.971  0.00  0.00    +0.106 C 
ATOM     27  C   UNL     1      -8.914  -0.814   0.974  0.00  0.00    +0.020 C 
ATOM     28  C   UNL     1      -8.424  -1.938   0.023  0.00  0.00    +0.020 C 
ATOM     29  C   UNL     1      -7.600  -1.168  -1.030  0.00  0.00    +0.106 C 
ATOM     30  C   UNL     1      -5.056   1.109  -0.903  0.00  0.00    +0.045 A 
ATOM     31  C   UNL     1      -3.677   1.074  -0.812  0.00  0.00    +0.028 A 
ENDBRANCH  18  21
ENDBRANCH   3  17
TORSDOF 3
