REMARK  Name = m372
REMARK  5 active torsions:
REMARK  status: ('A' for Active; 'I' for Inactive)
REMARK    1  A    between atoms: C_1  and  O_2
REMARK    2  A    between atoms: O_2  and  C_3
REMARK    3  A    between atoms: C_8  and  N_9
REMARK    4  A    between atoms: C_10  and  C_12
REMARK    5  A    between atoms: C_12  and  N_13
REMARK                            x       y       z     vdW  Elec       q    Type
REMARK                         _______ _______ _______ _____ _____    ______ ____
ROOT
ATOM      1  N   UNL     1       0.060  -0.349   1.144  0.00  0.00    -0.203 N 
ATOM      2  C   UNL     1      -0.496  -1.553   0.894  0.00  0.00    +0.352 A 
ATOM      3  O   UNL     1       0.019  -2.638   1.096  0.00  0.00    -0.244 OA
ATOM      4  N   UNL     1      -1.723  -1.340   0.384  0.00  0.00    -0.239 N 
ATOM      5  C   UNL     1      -1.930   0.029   0.308  0.00  0.00    +0.203 A 
ATOM      6  C   UNL     1      -3.207   0.525  -0.227  0.00  0.00    +0.167 A 
ATOM      7  N   UNL     1      -4.126  -0.323  -0.621  0.00  0.00    -0.227 NA
ATOM      8  C   UNL     1      -3.931  -1.668  -0.550  0.00  0.00    +0.090 A 
ATOM      9  C   UNL     1      -4.938  -2.539  -0.983  0.00  0.00    +0.030 A 
ATOM     10  C   UNL     1      -4.746  -3.901  -0.912  0.00  0.00    +0.002 A 
ATOM     11  C   UNL     1      -3.561  -4.417  -0.415  0.00  0.00    +0.002 A 
ATOM     12  C   UNL     1      -2.557  -3.571   0.015  0.00  0.00    +0.028 A 
ATOM     13  N   UNL     1      -3.438   1.883  -0.314  0.00  0.00    -0.308 N 
ATOM     14  C   UNL     1      -2.428   2.861   0.127  0.00  0.00    +0.134 C 
ATOM     15  C   UNL     1      -3.120   3.912   0.994  0.00  0.00    +0.178 C 
ATOM     16  O   UNL     1      -4.201   4.497   0.269  0.00  0.00    -0.377 OA
ATOM     17  C   UNL     1      -5.209   3.499   0.110  0.00  0.00    +0.178 C 
ATOM     18  C   UNL     1      -4.707   2.411  -0.845  0.00  0.00    +0.134 C 
ATOM     19  C   UNL     1      -2.733  -2.197  -0.049  0.00  0.00    +0.078 A 
ATOM     20  N   UNL     1      -0.865   0.632   0.762  0.00  0.00    -0.145 NA
ENDROOT
BRANCH   1  21
ATOM     21  C   UNL     1       1.391  -0.112   1.707  0.00  0.00    +0.244 C 
BRANCH  21  24
ATOM     22  N   UNL     1       3.700   0.197   0.873  0.00  0.00    -0.281 N 
ATOM     23  H   UNL     1       4.000   0.210   1.796  0.00  0.00    +0.155 HD
ATOM     24  C   UNL     1       2.400  -0.020   0.591  0.00  0.00    +0.239 C 
ATOM     25  O   UNL     1       2.041  -0.140  -0.561  0.00  0.00    -0.273 OA
BRANCH  22  27
ATOM     26  C   UNL     1       5.968   0.132   0.032  0.00  0.00    +0.141 A 
ATOM     27  C   UNL     1       4.617   0.405  -0.165  0.00  0.00    +0.076 A 
ATOM     28  C   UNL     1       4.183   0.892  -1.390  0.00  0.00    +0.027 A 
ATOM     29  C   UNL     1       5.089   1.095  -2.413  0.00  0.00    +0.002 A 
ATOM     30  C   UNL     1       6.430   0.819  -2.218  0.00  0.00    +0.004 A 
ATOM     31  C   UNL     1       6.871   0.338  -0.999  0.00  0.00    +0.047 A 
BRANCH  26  33
ATOM     32  C   UNL     1       7.813  -0.526   1.118  0.00  0.00    +0.277 C 
ATOM     33  O   UNL     1       6.400  -0.342   1.231  0.00  0.00    -0.493 OA
ENDBRANCH  26  33
ENDBRANCH  22  27
ENDBRANCH  21  24
ENDBRANCH   1  21
TORSDOF 4
