REMARK  Name = m374
REMARK  8 active torsions:
REMARK  status: ('A' for Active; 'I' for Inactive)
REMARK    1  A    between atoms: C_1  and  O_2
REMARK    2  A    between atoms: O_2  and  C_3
REMARK    3  A    between atoms: C_3  and  C_4
REMARK    4  A    between atoms: C_4  and  N_5
REMARK    5  A    between atoms: C_6  and  C_8
REMARK    6  A    between atoms: C_8  and  N_9
REMARK    7  A    between atoms: C_13  and  C_14
REMARK    8  A    between atoms: C_15  and  C_16
REMARK                            x       y       z     vdW  Elec       q    Type
REMARK                         _______ _______ _______ _____ _____    ______ ____
ROOT
ATOM      1  C   UNL     1      -2.006  -1.130   0.298  0.00  0.00    +0.011 A 
ATOM      2  C   UNL     1      -2.719  -2.203  -0.265  0.00  0.00    +0.014 A 
ATOM      3  C   UNL     1      -3.977  -1.873  -0.826  0.00  0.00    +0.109 A 
ATOM      4  N   UNL     1      -4.760  -2.767  -1.385  0.00  0.00    -0.248 NA
ATOM      5  C   UNL     1      -4.411  -4.038  -1.449  0.00  0.00    +0.112 A 
ATOM      6  C   UNL     1      -3.198  -4.460  -0.923  0.00  0.00    +0.020 A 
ATOM      7  S   UNL     1      -4.096  -0.121  -0.556  0.00  0.00    -0.064 S 
ATOM      8  C   UNL     1      -2.349  -3.572  -0.331  0.00  0.00    +0.012 A 
ATOM      9  C   UNL     1      -2.533   0.122   0.270  0.00  0.00    +0.082 A 
ENDROOT
BRANCH   9  10
ATOM     10  C   UNL     1      -1.957   1.370   0.792  0.00  0.00    +0.254 C 
ATOM     11  N   UNL     1      -2.499   2.556   0.451  0.00  0.00    -0.293 N 
ATOM     12  C   UNL     1      -3.551   2.650  -0.576  0.00  0.00    +0.136 C 
ATOM     13  C   UNL     1      -3.189   3.783  -1.535  0.00  0.00    +0.179 C 
ATOM     14  O   UNL     1      -3.001   4.992  -0.801  0.00  0.00    -0.377 OA
ATOM     15  C   UNL     1      -1.817   4.846  -0.018  0.00  0.00    +0.179 C 
ATOM     16  C   UNL     1      -2.057   3.809   1.086  0.00  0.00    +0.136 C 
ATOM     17  O   UNL     1      -0.992   1.332   1.531  0.00  0.00    -0.269 OA
ENDBRANCH   9  10
BRANCH   1  20
ATOM     18  N   UNL     1       1.756  -1.154   0.567  0.00  0.00    -0.289 NA
ATOM     19  C   UNL     1       0.438  -0.860  -0.012  0.00  0.00    +0.121 C 
ATOM     20  C   UNL     1      -0.657  -1.368   0.927  0.00  0.00    +0.164 C 
ATOM     21  O   UNL     1      -0.585  -0.674   2.172  0.00  0.00    -0.369 OA
ATOM     22  C   UNL     1       0.677  -0.992   2.759  0.00  0.00    +0.176 C 
ATOM     23  C   UNL     1       1.806  -0.474   1.868  0.00  0.00    +0.113 C 
BRANCH  18  24
ATOM     24  C   UNL     1       2.750  -0.496  -0.292  0.00  0.00    +0.180 C 
BRANCH  24  27
ATOM     25  N   UNL     1       5.209  -0.479  -0.559  0.00  0.00    -0.312 N 
ATOM     26  H   UNL     1       5.095   0.158  -1.282  0.00  0.00    +0.149 HD
ATOM     27  C   UNL     1       4.132  -0.954   0.097  0.00  0.00    +0.227 C 
ATOM     28  O   UNL     1       4.274  -1.751   1.001  0.00  0.00    -0.274 OA
BRANCH  25  29
ATOM     29  C   UNL     1       6.552  -0.925  -0.181  0.00  0.00    +0.132 C 
BRANCH  29  30
ATOM     30  C   UNL     1       7.588  -0.240  -1.075  0.00  0.00    +0.178 C 
BRANCH  30  32
ATOM     31  C   UNL     1       8.556   1.748  -1.688  0.00  0.00    +0.194 C 
ATOM     32  O   UNL     1       7.573   1.168  -0.828  0.00  0.00    -0.381 OA
ENDBRANCH  30  32
ENDBRANCH  29  30
ENDBRANCH  25  29
ENDBRANCH  24  27
ENDBRANCH  18  24
ENDBRANCH   1  20
TORSDOF 7
