REMARK  Name = m375
REMARK  7 active torsions:
REMARK  status: ('A' for Active; 'I' for Inactive)
REMARK    1  A    between atoms: C_1  and  O_2
REMARK    2  A    between atoms: O_2  and  C_3
REMARK    3  A    between atoms: C_3  and  C_4
REMARK    4  A    between atoms: C_4  and  N_5
REMARK    5  A    between atoms: C_6  and  C_8
REMARK    6  A    between atoms: C_16  and  C_17
REMARK    7  A    between atoms: C_20  and  C_22
REMARK                            x       y       z     vdW  Elec       q    Type
REMARK                         _______ _______ _______ _____ _____    ______ ____
ROOT
ATOM      1  C   UNL     1       1.620   0.625   0.109  0.00  0.00    +0.082 A 
ATOM      2  C   UNL     1       0.453   1.063   0.651  0.00  0.00    +0.011 A 
ATOM      3  C   UNL     1       0.126   2.429   0.600  0.00  0.00    +0.014 A 
ATOM      4  C   UNL     1       1.074   3.260  -0.046  0.00  0.00    +0.109 A 
ATOM      5  N   UNL     1       0.906   4.556  -0.176  0.00  0.00    -0.248 NA
ATOM      6  C   UNL     1      -0.169   5.158   0.295  0.00  0.00    +0.112 A 
ATOM      7  C   UNL     1      -1.155   4.429   0.944  0.00  0.00    +0.020 A 
ATOM      8  C   UNL     1      -1.029   3.080   1.106  0.00  0.00    +0.012 A 
ATOM      9  S   UNL     1       2.349   2.122  -0.532  0.00  0.00    -0.064 S 
ENDROOT
BRANCH   2  10
ATOM     10  C   UNL     1      -0.486   0.086   1.311  0.00  0.00    +0.167 C 
ATOM     11  O   UNL     1       0.259  -0.795   2.151  0.00  0.00    -0.369 OA
ATOM     12  C   UNL     1      -0.674  -1.563   2.910  0.00  0.00    +0.179 C 
ATOM     13  C   UNL     1      -1.423  -2.526   1.983  0.00  0.00    +0.136 C 
ATOM     14  N   UNL     1      -2.050  -1.736   0.910  0.00  0.00    -0.291 N 
ATOM     15  C   UNL     1      -3.337  -1.930   0.558  0.00  0.00    +0.267 C 
ATOM     16  O   UNL     1      -4.042  -2.667   1.218  0.00  0.00    -0.268 OA
ATOM     17  C   UNL     1      -1.217  -0.725   0.235  0.00  0.00    +0.144 C 
BRANCH  15  18
ATOM     18  C   UNL     1      -3.891  -1.245  -0.633  0.00  0.00    +0.144 A 
ATOM     19  N   UNL     1      -3.088  -0.557  -1.440  0.00  0.00    -0.247 NA
ATOM     20  C   UNL     1      -3.583   0.047  -2.502  0.00  0.00    +0.131 A 
ATOM     21  C   UNL     1      -4.942  -0.024  -2.772  0.00  0.00    +0.130 A 
ATOM     22  N   UNL     1      -5.745  -0.701  -1.970  0.00  0.00    -0.259 NA
ATOM     23  C   UNL     1      -5.256  -1.314  -0.907  0.00  0.00    +0.143 A 
ENDBRANCH  15  18
ENDBRANCH   2  10
BRANCH   1  26
ATOM     24  N   UNL     1       3.336  -0.988  -0.532  0.00  0.00    -0.309 N 
ATOM     25  H   UNL     1       3.841  -0.258  -0.924  0.00  0.00    +0.149 HD
ATOM     26  C   UNL     1       2.150  -0.745   0.059  0.00  0.00    +0.251 C 
ATOM     27  O   UNL     1       1.517  -1.660   0.550  0.00  0.00    -0.270 OA
BRANCH  24  28
ATOM     28  C   UNL     1       3.864  -2.354  -0.583  0.00  0.00    +0.132 C 
BRANCH  28  29
ATOM     29  C   UNL     1       5.214  -2.353  -1.302  0.00  0.00    +0.178 C 
BRANCH  29  31
ATOM     30  C   UNL     1       7.396  -1.645  -1.254  0.00  0.00    +0.194 C 
ATOM     31  O   UNL     1       6.162  -1.609  -0.534  0.00  0.00    -0.381 OA
ENDBRANCH  29  31
ENDBRANCH  28  29
ENDBRANCH  24  28
ENDBRANCH   1  26
TORSDOF 6
