REMARK  Name = m376
REMARK  9 active torsions:
REMARK  status: ('A' for Active; 'I' for Inactive)
REMARK    1  A    between atoms: C_1  and  C_2
REMARK    2  A    between atoms: C_6  and  C_7
REMARK    3  A    between atoms: C_12  and  C_13
REMARK    4  A    between atoms: C_14  and  C_15
REMARK    5  A    between atoms: N_17  and  C_18
REMARK    6  A    between atoms: C_18  and  C_19
REMARK    7  A    between atoms: C_19  and  N_20
REMARK    8  A    between atoms: N_20  and  C_21
REMARK    9  A    between atoms: N_20  and  C_22
REMARK                            x       y       z     vdW  Elec       q    Type
REMARK                         _______ _______ _______ _____ _____    ______ ____
ROOT
ATOM      1  C   UNL     1      -0.903  -1.316  -0.161  0.00  0.00    -0.014 A 
ATOM      2  C   UNL     1      -0.573  -2.674  -0.009  0.00  0.00    +0.012 A 
ATOM      3  C   UNL     1      -1.669  -3.554   0.165  0.00  0.00    +0.109 A 
ATOM      4  N   UNL     1      -1.519  -4.849   0.324  0.00  0.00    -0.248 NA
ATOM      5  C   UNL     1      -0.322  -5.403   0.335  0.00  0.00    +0.112 A 
ATOM      6  C   UNL     1       0.815  -4.623   0.178  0.00  0.00    +0.020 A 
ATOM      7  S   UNL     1      -3.076  -2.471   0.096  0.00  0.00    -0.064 S 
ATOM      8  C   UNL     1       0.714  -3.273   0.010  0.00  0.00    +0.012 A 
ATOM      9  C   UNL     1      -2.207  -0.931  -0.146  0.00  0.00    +0.080 A 
ENDROOT
BRANCH   1  13
ATOM     10  C   UNL     1       3.448   0.772   0.961  0.00  0.00    +0.257 C 
ATOM     11  N   UNL     1       2.451   0.202   0.256  0.00  0.00    -0.296 N 
ATOM     12  C   UNL     1       1.204  -0.346   0.820  0.00  0.00    +0.116 C 
ATOM     13  C   UNL     1       0.185  -0.291  -0.348  0.00  0.00    +0.040 C 
ATOM     14  C   UNL     1       1.084  -0.649  -1.561  0.00  0.00    +0.029 C 
ATOM     15  C   UNL     1       2.429   0.020  -1.203  0.00  0.00    +0.109 C 
ATOM     16  O   UNL     1       3.359   0.870   2.170  0.00  0.00    -0.269 OA
BRANCH  10  19
ATOM     17  C   UNL     1       5.979   2.172   2.248  0.00  0.00    +0.069 C 
ATOM     18  C   UNL     1       5.779   1.896   0.780  0.00  0.00    +0.081 A 
ATOM     19  C   UNL     1       4.645   1.275   0.268  0.00  0.00    +0.117 A 
ATOM     20  S   UNL     1       5.052   1.268  -1.470  0.00  0.00    +0.041 S 
ATOM     21  N   UNL     1       6.466   1.969  -1.384  0.00  0.00    -0.110 NA
ATOM     22  N   UNL     1       6.659   2.214  -0.140  0.00  0.00    -0.146 NA
ENDBRANCH  10  19
ENDBRANCH   1  13
BRANCH   9  23
ATOM     23  C   UNL     1      -2.764   0.421  -0.292  0.00  0.00    +0.251 C 
ATOM     24  N   UNL     1      -4.087   0.626  -0.137  0.00  0.00    -0.310 N 
ATOM     25  H   UNL     1      -4.672  -0.120   0.072  0.00  0.00    +0.149 HD
ATOM     26  O   UNL     1      -2.030   1.356  -0.553  0.00  0.00    -0.270 OA
BRANCH  24  27
ATOM     27  C   UNL     1      -4.642   1.974  -0.282  0.00  0.00    +0.120 C 
BRANCH  27  28
ATOM     28  C   UNL     1      -6.155   1.929  -0.058  0.00  0.00    +0.102 C 
BRANCH  28  29
ATOM     29  N   UNL     1      -6.711   3.281  -0.205  0.00  0.00    -0.307 NA
ATOM     30  C   UNL     1      -6.373   4.012   1.024  0.00  0.00    +0.104 C 
ATOM     31  C   UNL     1      -8.173   3.136  -0.221  0.00  0.00    +0.104 C 
ENDBRANCH  28  29
ENDBRANCH  27  28
ENDBRANCH  24  27
ENDBRANCH   9  23
TORSDOF 6
