REMARK  Name = m377
REMARK  6 active torsions:
REMARK  status: ('A' for Active; 'I' for Inactive)
REMARK    1  A    between atoms: C_1  and  O_2
REMARK    2  A    between atoms: O_2  and  C_3
REMARK    3  A    between atoms: C_3  and  C_5
REMARK    4  A    between atoms: C_10  and  N_11
REMARK    5  A    between atoms: C_12  and  C_14
REMARK    6  A    between atoms: C_14  and  N_15
REMARK                            x       y       z     vdW  Elec       q    Type
REMARK                         _______ _______ _______ _____ _____    ______ ____
ROOT
ATOM      1  N   UNL     1      -0.495   0.329  -1.166  0.00  0.00    -0.203 N 
ATOM      2  C   UNL     1      -1.302   1.403  -1.043  0.00  0.00    +0.352 A 
ATOM      3  O   UNL     1      -1.010   2.556  -1.308  0.00  0.00    -0.244 OA
ATOM      4  N   UNL     1      -2.489   0.972  -0.578  0.00  0.00    -0.239 N 
ATOM      5  C   UNL     1      -2.413  -0.400  -0.400  0.00  0.00    +0.203 A 
ATOM      6  C   UNL     1      -3.593  -1.116   0.110  0.00  0.00    +0.167 A 
ATOM      7  N   UNL     1      -4.690  -0.455   0.389  0.00  0.00    -0.227 NA
ATOM      8  C   UNL     1      -4.773   0.892   0.218  0.00  0.00    +0.090 A 
ATOM      9  C   UNL     1      -5.964   1.560   0.527  0.00  0.00    +0.030 A 
ATOM     10  C   UNL     1      -6.053   2.923   0.355  0.00  0.00    +0.002 A 
ATOM     11  C   UNL     1      -4.970   3.642  -0.124  0.00  0.00    +0.002 A 
ATOM     12  C   UNL     1      -3.788   2.998  -0.434  0.00  0.00    +0.028 A 
ATOM     13  N   UNL     1      -3.544  -2.483   0.297  0.00  0.00    -0.312 N 
ATOM     14  C   UNL     1      -2.382  -3.347   0.020  0.00  0.00    +0.106 C 
ATOM     15  C   UNL     1      -2.585  -4.585   0.932  0.00  0.00    +0.020 C 
ATOM     16  C   UNL     1      -4.124  -4.771   0.863  0.00  0.00    +0.020 C 
ATOM     17  C   UNL     1      -4.645  -3.319   0.798  0.00  0.00    +0.106 C 
ATOM     18  C   UNL     1      -3.680   1.626  -0.266  0.00  0.00    +0.078 A 
ATOM     19  N   UNL     1      -1.220  -0.796  -0.751  0.00  0.00    -0.145 NA
ENDROOT
BRANCH   1  20
ATOM     20  C   UNL     1       0.891   0.339  -1.642  0.00  0.00    +0.244 C 
BRANCH  20  23
ATOM     21  N   UNL     1       3.154   0.582  -0.674  0.00  0.00    -0.283 N 
ATOM     22  H   UNL     1       3.519   0.403  -1.555  0.00  0.00    +0.155 HD
ATOM     23  C   UNL     1       1.822   0.539  -0.474  0.00  0.00    +0.239 C 
ATOM     24  O   UNL     1       1.372   0.662   0.645  0.00  0.00    -0.273 OA
BRANCH  21  26
ATOM     25  C   UNL     1       5.263   0.262   0.476  0.00  0.00    +0.080 A 
ATOM     26  C   UNL     1       4.008   0.882   0.385  0.00  0.00    +0.047 A 
ATOM     27  C   UNL     1       3.616   1.787   1.362  0.00  0.00    +0.024 A 
ATOM     28  C   UNL     1       4.463   2.083   2.411  0.00  0.00    +0.002 A 
ATOM     29  C   UNL     1       5.706   1.476   2.501  0.00  0.00    +0.001 A 
ATOM     30  C   UNL     1       6.110   0.571   1.544  0.00  0.00    +0.017 A 
BRANCH  25  31
ATOM     31  C   UNL     1       5.689  -0.705  -0.552  0.00  0.00    +0.341 C 
ATOM     32  O   UNL     1       4.923  -1.025  -1.439  0.00  0.00    -0.245 OA
BRANCH  31  34
ATOM     33  C   UNL     1       7.347  -2.187  -1.519  0.00  0.00    +0.280 C 
ATOM     34  O   UNL     1       6.928  -1.234  -0.507  0.00  0.00    -0.464 OA
ENDBRANCH  31  34
ENDBRANCH  25  31
ENDBRANCH  21  26
ENDBRANCH  20  23
ENDBRANCH   1  20
TORSDOF 5
