REMARK  Name = m378
REMARK  8 active torsions:
REMARK  status: ('A' for Active; 'I' for Inactive)
REMARK    1  A    between atoms: C_1  and  N_2
REMARK    2  A    between atoms: C_6  and  C_7
REMARK    3  A    between atoms: C_12  and  C_13
REMARK    4  A    between atoms: C_14  and  C_15
REMARK    5  A    between atoms: N_17  and  C_18
REMARK    6  A    between atoms: C_18  and  C_19
REMARK    7  A    between atoms: C_19  and  O_20
REMARK    8  A    between atoms: O_20  and  C_21
REMARK                            x       y       z     vdW  Elec       q    Type
REMARK                         _______ _______ _______ _____ _____    ______ ____
ROOT
ATOM      1  C   UNL     1      -1.594  -0.874  -0.180  0.00  0.00    -0.014 A 
ATOM      2  C   UNL     1      -1.587  -2.279  -0.169  0.00  0.00    +0.012 A 
ATOM      3  C   UNL     1      -2.861  -2.897  -0.168  0.00  0.00    +0.109 A 
ATOM      4  N   UNL     1      -3.016  -4.201  -0.153  0.00  0.00    -0.248 NA
ATOM      5  C   UNL     1      -1.977  -5.013  -0.134  0.00  0.00    +0.112 A 
ATOM      6  C   UNL     1      -0.687  -4.503  -0.128  0.00  0.00    +0.020 A 
ATOM      7  S   UNL     1      -3.982  -1.518  -0.195  0.00  0.00    -0.064 S 
ATOM      8  C   UNL     1      -0.471  -3.157  -0.142  0.00  0.00    +0.012 A 
ATOM      9  C   UNL     1      -2.776  -0.203  -0.199  0.00  0.00    +0.080 A 
ENDROOT
BRANCH   1  13
ATOM     10  C   UNL     1       3.016   0.006   1.411  0.00  0.00    +0.250 C 
ATOM     11  N   UNL     1       1.973  -0.230   0.591  0.00  0.00    -0.297 N 
ATOM     12  C   UNL     1       0.597  -0.540   1.018  0.00  0.00    +0.116 C 
ATOM     13  C   UNL     1      -0.294  -0.112  -0.178  0.00  0.00    +0.040 C 
ATOM     14  C   UNL     1       0.593  -0.520  -1.384  0.00  0.00    +0.029 C 
ATOM     15  C   UNL     1       2.021  -0.228  -0.879  0.00  0.00    +0.109 C 
ATOM     16  O   UNL     1       2.885  -0.119   2.613  0.00  0.00    -0.270 OA
BRANCH  10  23
ATOM     17  C   UNL     1       8.106   1.544  -2.144  0.00  0.00    +0.128 C 
ATOM     18  N   UNL     1       7.900   1.545  -0.694  0.00  0.00    -0.317 N 
ATOM     19  H   UNL     1       8.620   1.816  -0.102  0.00  0.00    +0.149 HD
ATOM     20  C   UNL     1       6.684   1.162  -0.170  0.00  0.00    +0.215 A 
ATOM     21  N   UNL     1       5.711   0.800  -0.996  0.00  0.00    -0.222 NA
ATOM     22  C   UNL     1       4.534   0.421  -0.534  0.00  0.00    +0.129 A 
ATOM     23  C   UNL     1       4.318   0.416   0.850  0.00  0.00    +0.073 A 
ATOM     24  C   UNL     1       5.370   0.810   1.688  0.00  0.00    +0.129 A 
ATOM     25  N   UNL     1       6.518   1.170   1.147  0.00  0.00    -0.222 NA
ENDBRANCH  10  23
ENDBRANCH   1  13
BRANCH   9  26
ATOM     26  C   UNL     1      -3.005   1.249  -0.219  0.00  0.00    +0.251 C 
ATOM     27  N   UNL     1      -4.256   1.732  -0.348  0.00  0.00    -0.309 N 
ATOM     28  H   UNL     1      -5.006   1.122  -0.428  0.00  0.00    +0.149 HD
ATOM     29  O   UNL     1      -2.064   2.014  -0.120  0.00  0.00    -0.270 OA
BRANCH  27  30
ATOM     30  C   UNL     1      -4.484   3.179  -0.368  0.00  0.00    +0.132 C 
BRANCH  30  31
ATOM     31  C   UNL     1      -5.981   3.458  -0.523  0.00  0.00    +0.178 C 
BRANCH  31  32
ATOM     32  O   UNL     1      -6.676   2.981   0.631  0.00  0.00    -0.381 OA
ATOM     33  C   UNL     1      -8.061   3.269   0.427  0.00  0.00    +0.194 C 
ENDBRANCH  31  32
ENDBRANCH  30  31
ENDBRANCH  27  30
ENDBRANCH   9  26
TORSDOF 6
