REMARK  Name = m379
REMARK  6 active torsions:
REMARK  status: ('A' for Active; 'I' for Inactive)
REMARK    1  A    between atoms: C_2  and  C_7
REMARK    2  A    between atoms: N_3  and  C_4
REMARK    3  A    between atoms: C_4  and  C_5
REMARK    4  A    between atoms: C_5  and  O_6
REMARK    5  A    between atoms: C_15  and  C_16
REMARK    6  A    between atoms: C_19  and  C_21
REMARK                            x       y       z     vdW  Elec       q    Type
REMARK                         _______ _______ _______ _____ _____    ______ ____
ROOT
ATOM      1  C   UNL     1       2.323   0.126   0.030  0.00  0.00    +0.082 A 
ATOM      2  C   UNL     1       1.506  -0.920  -0.262  0.00  0.00    +0.011 A 
ATOM      3  C   UNL     1       2.005  -2.233  -0.207  0.00  0.00    +0.014 A 
ATOM      4  C   UNL     1       3.364  -2.356   0.173  0.00  0.00    +0.109 A 
ATOM      5  N   UNL     1       3.969  -3.517   0.274  0.00  0.00    -0.248 NA
ATOM      6  C   UNL     1       3.332  -4.645   0.022  0.00  0.00    +0.112 A 
ATOM      7  C   UNL     1       1.997  -4.628  -0.357  0.00  0.00    +0.020 A 
ATOM      8  C   UNL     1       1.323  -3.449  -0.476  0.00  0.00    +0.012 A 
ATOM      9  S   UNL     1       3.870  -0.671   0.422  0.00  0.00    -0.064 S 
ENDROOT
BRANCH   2  10
ATOM     10  C   UNL     1       0.071  -0.673  -0.648  0.00  0.00    +0.167 C 
ATOM     11  O   UNL     1       0.009   0.399  -1.588  0.00  0.00    -0.369 OA
ATOM     12  C   UNL     1      -1.327   0.467  -2.084  0.00  0.00    +0.179 C 
ATOM     13  C   UNL     1      -2.266   0.937  -0.967  0.00  0.00    +0.136 C 
ATOM     14  N   UNL     1      -2.110   0.024   0.178  0.00  0.00    -0.293 N 
ATOM     15  C   UNL     1      -3.182  -0.488   0.816  0.00  0.00    +0.248 C 
ATOM     16  O   UNL     1      -3.031  -1.335   1.675  0.00  0.00    -0.270 OA
ATOM     17  C   UNL     1      -0.739  -0.308   0.601  0.00  0.00    +0.144 C 
BRANCH  15  18
ATOM     18  C   UNL     1      -4.541  -0.020   0.470  0.00  0.00    +0.055 A 
ATOM     19  C   UNL     1      -5.630  -0.889   0.539  0.00  0.00    +0.123 A 
ATOM     20  N   UNL     1      -6.841  -0.470   0.237  0.00  0.00    -0.263 NA
ATOM     21  C   UNL     1      -7.074   0.769  -0.151  0.00  0.00    +0.111 A 
ATOM     22  C   UNL     1      -6.047   1.690  -0.252  0.00  0.00    +0.020 A 
ATOM     23  C   UNL     1      -4.756   1.302   0.061  0.00  0.00    +0.016 A 
ENDBRANCH  15  18
ENDBRANCH   2  10
BRANCH   1  25
ATOM     24  O   UNL     1       0.888   1.939  -0.265  0.00  0.00    -0.270 OA
ATOM     25  C   UNL     1       2.007   1.562   0.030  0.00  0.00    +0.251 C 
ATOM     26  N   UNL     1       2.955   2.461   0.362  0.00  0.00    -0.309 N 
ATOM     27  H   UNL     1       3.847   2.160   0.597  0.00  0.00    +0.149 HD
BRANCH  26  28
ATOM     28  C   UNL     1       2.638   3.891   0.367  0.00  0.00    +0.132 C 
BRANCH  28  29
ATOM     29  C   UNL     1       3.880   4.686   0.776  0.00  0.00    +0.174 C 
BRANCH  29  30
ATOM     30  O   UNL     1       4.895   4.528  -0.216  0.00  0.00    -0.393 OA
ATOM     31  H   UNL     1       5.658   5.043   0.080  0.00  0.00    +0.209 HD
ENDBRANCH  29  30
ENDBRANCH  28  29
ENDBRANCH  26  28
ENDBRANCH   1  25
TORSDOF 6
