REMARK  Name = m380
REMARK  7 active torsions:
REMARK  status: ('A' for Active; 'I' for Inactive)
REMARK    1  A    between atoms: C_1  and  O_2
REMARK    2  A    between atoms: O_2  and  C_3
REMARK    3  A    between atoms: C_8  and  N_9
REMARK    4  A    between atoms: C_12  and  C_13
REMARK    5  A    between atoms: C_16  and  C_17
REMARK    6  A    between atoms: C_17  and  C_18
REMARK    7  A    between atoms: C_28  and  C_29
REMARK                            x       y       z     vdW  Elec       q    Type
REMARK                         _______ _______ _______ _____ _____    ______ ____
ROOT
ATOM      1  C   UNL     1       0.348  -0.706  -0.218  0.00  0.00    +0.154 A 
ATOM      2  S   UNL     1       0.765  -2.363   0.303  0.00  0.00    -0.025 S 
ATOM      3  C   UNL     1       2.490  -2.316  -0.113  0.00  0.00    +0.218 A 
ATOM      4  N   UNL     1       2.640  -1.045  -0.611  0.00  0.00    -0.190 N 
ATOM      5  C   UNL     1       3.978  -0.978  -0.938  0.00  0.00    +0.160 A 
ATOM      6  N   UNL     1       4.524  -2.124  -0.642  0.00  0.00    -0.131 NA
ATOM      7  N   UNL     1       3.639  -2.920  -0.151  0.00  0.00    -0.120 NA
ATOM      8  N   UNL     1       1.500  -0.253  -0.643  0.00  0.00    -0.154 NA
ENDROOT
BRANCH   1  12
ATOM      9  N   UNL     1      -3.078   0.398   0.153  0.00  0.00    -0.213 N 
ATOM     10  C   UNL     1      -2.126  -0.555   0.292  0.00  0.00    +0.072 A 
ATOM     11  C   UNL     1      -2.319  -1.944   0.845  0.00  0.00    +0.068 C 
ATOM     12  C   UNL     1      -0.962  -0.019  -0.173  0.00  0.00    +0.143 A 
ATOM     13  N   UNL     1      -1.202   1.238  -0.578  0.00  0.00    -0.127 NA
ATOM     14  N   UNL     1      -2.446   1.520  -0.400  0.00  0.00    -0.060 NA
BRANCH   9  16
ATOM     15  C   UNL     1      -5.419   0.703  -0.390  0.00  0.00    +0.145 A 
ATOM     16  C   UNL     1      -4.433   0.286   0.501  0.00  0.00    +0.109 A 
ATOM     17  C   UNL     1      -4.794  -0.230   1.737  0.00  0.00    +0.031 A 
ATOM     18  C   UNL     1      -6.128  -0.339   2.077  0.00  0.00    +0.002 A 
ATOM     19  C   UNL     1      -7.107   0.070   1.190  0.00  0.00    +0.004 A 
ATOM     20  C   UNL     1      -6.756   0.590  -0.042  0.00  0.00    +0.048 A 
BRANCH  15  22
ATOM     21  C   UNL     1      -6.288   1.538  -2.277  0.00  0.00    +0.277 C 
ATOM     22  O   UNL     1      -5.072   1.214  -1.601  0.00  0.00    -0.493 OA
ENDBRANCH  15  22
ENDBRANCH   9  16
ENDBRANCH   1  12
BRANCH   5  23
ATOM     23  C   UNL     1       4.686   0.212  -1.533  0.00  0.00    +0.113 C 
BRANCH  23  24
ATOM     24  C   UNL     1       5.217   1.086  -0.426  0.00  0.00    -0.040 A 
ATOM     25  C   UNL     1       4.435   2.105   0.086  0.00  0.00    +0.004 A 
ATOM     26  C   UNL     1       4.921   2.904   1.104  0.00  0.00    +0.000 A 
ATOM     27  C   UNL     1       6.191   2.689   1.605  0.00  0.00    +0.000 A 
ATOM     28  C   UNL     1       6.975   1.674   1.089  0.00  0.00    +0.000 A 
ATOM     29  C   UNL     1       6.488   0.872   0.074  0.00  0.00    +0.004 A 
ENDBRANCH  23  24
ENDBRANCH   5  23
TORSDOF 5
