REMARK  Name = m381
REMARK  6 active torsions:
REMARK  status: ('A' for Active; 'I' for Inactive)
REMARK    1  A    between atoms: C_1  and  N_2
REMARK    2  A    between atoms: N_2  and  C_3
REMARK    3  A    between atoms: C_4  and  C_6
REMARK    4  A    between atoms: C_14  and  C_15
REMARK    5  A    between atoms: N_17  and  S_18
REMARK    6  A    between atoms: S_18  and  N_21
REMARK                            x       y       z     vdW  Elec       q    Type
REMARK                         _______ _______ _______ _____ _____    ______ ____
ROOT
ATOM      1  C   UNL     1       0.867  -0.349  -1.069  0.00  0.00    +0.166 C 
ATOM      2  O   UNL     1       0.883   0.714  -2.021  0.00  0.00    -0.369 OA
ATOM      3  C   UNL     1      -0.219   0.520  -2.906  0.00  0.00    +0.178 C 
ATOM      4  C   UNL     1      -1.532   0.758  -2.152  0.00  0.00    +0.138 C 
ATOM      5  N   UNL     1      -1.557  -0.135  -0.981  0.00  0.00    -0.161 NA
ATOM      6  C   UNL     1      -0.345  -0.191  -0.144  0.00  0.00    +0.147 C 
ENDROOT
BRANCH   1   8
ATOM      7  C   UNL     1       2.589   0.875   0.238  0.00  0.00    +0.082 A 
ATOM      8  C   UNL     1       2.131  -0.308  -0.250  0.00  0.00    +0.011 A 
ATOM      9  C   UNL     1       2.843  -1.492   0.005  0.00  0.00    +0.014 A 
ATOM     10  C   UNL     1       4.015  -1.345   0.788  0.00  0.00    +0.109 A 
ATOM     11  N   UNL     1       4.782  -2.361   1.114  0.00  0.00    -0.248 NA
ATOM     12  C   UNL     1       4.495  -3.587   0.722  0.00  0.00    +0.112 A 
ATOM     13  C   UNL     1       3.368  -3.834  -0.049  0.00  0.00    +0.020 A 
ATOM     14  C   UNL     1       2.539  -2.814  -0.414  0.00  0.00    +0.012 A 
ATOM     15  S   UNL     1       4.068   0.400   1.116  0.00  0.00    -0.064 S 
BRANCH   7  18
ATOM     16  C   UNL     1       2.148   4.622   0.439  0.00  0.00    +0.132 C 
ATOM     17  N   UNL     1       2.773   3.309   0.262  0.00  0.00    -0.303 N 
ATOM     18  C   UNL     1       2.005   2.216   0.086  0.00  0.00    +0.253 C 
ATOM     19  O   UNL     1       0.828   2.338  -0.198  0.00  0.00    -0.269 OA
ATOM     20  C   UNL     1       4.232   3.184   0.275  0.00  0.00    +0.132 C 
ENDBRANCH   7  18
ENDBRANCH   1   8
BRANCH   5  21
ATOM     21  S   UNL     1      -2.895  -1.040  -0.619  0.00  0.00    +0.100 S 
ATOM     22  O   UNL     1      -2.426  -2.120   0.177  0.00  0.00    -0.141 OA
ATOM     23  O   UNL     1      -3.615  -1.169  -1.836  0.00  0.00    -0.141 OA
BRANCH  21  24
ATOM     24  N   UNL     1      -3.854  -0.130   0.378  0.00  0.00    -0.162 NA
ATOM     25  C   UNL     1      -3.708  -0.188   1.843  0.00  0.00    +0.138 C 
ATOM     26  C   UNL     1      -5.098  -0.337   2.460  0.00  0.00    +0.177 C 
ATOM     27  O   UNL     1      -5.938   0.727   2.014  0.00  0.00    -0.377 OA
ATOM     28  C   UNL     1      -6.184   0.532   0.622  0.00  0.00    +0.177 C 
ATOM     29  C   UNL     1      -4.890   0.765  -0.165  0.00  0.00    +0.138 C 
ENDBRANCH  21  24
ENDBRANCH   5  21
TORSDOF 4
