REMARK  Name = m383
REMARK  9 active torsions:
REMARK  status: ('A' for Active; 'I' for Inactive)
REMARK    1  A    between atoms: C_1  and  C_2
REMARK    2  A    between atoms: C_2  and  N_3
REMARK    3  A    between atoms: C_5  and  C_6
REMARK    4  A    between atoms: C_6  and  N_7
REMARK    5  A    between atoms: C_11  and  C_12
REMARK    6  A    between atoms: C_13  and  C_14
REMARK    7  A    between atoms: N_16  and  C_17
REMARK    8  A    between atoms: C_17  and  C_18
REMARK    9  A    between atoms: C_18  and  O_19
REMARK                            x       y       z     vdW  Elec       q    Type
REMARK                         _______ _______ _______ _____ _____    ______ ____
ROOT
ATOM      1  C   UNL     1      -1.750   0.984  -0.277  0.00  0.00    +0.011 A 
ATOM      2  C   UNL     1      -2.194   2.310  -0.128  0.00  0.00    +0.014 A 
ATOM      3  C   UNL     1      -3.503   2.462   0.390  0.00  0.00    +0.109 A 
ATOM      4  N   UNL     1      -4.057   3.638   0.582  0.00  0.00    -0.248 NA
ATOM      5  C   UNL     1      -3.414   4.752   0.293  0.00  0.00    +0.112 A 
ATOM      6  C   UNL     1      -2.127   4.707  -0.225  0.00  0.00    +0.020 A 
ATOM      7  S   UNL     1      -4.035   0.787   0.649  0.00  0.00    -0.064 S 
ATOM      8  C   UNL     1      -1.507   3.512  -0.443  0.00  0.00    +0.012 A 
ATOM      9  C   UNL     1      -2.564  -0.045   0.079  0.00  0.00    +0.082 A 
ENDROOT
BRANCH   1  12
ATOM     10  N   UNL     1       1.910   0.081  -0.199  0.00  0.00    -0.293 NA
ATOM     11  C   UNL     1       0.551   0.285   0.320  0.00  0.00    +0.121 C 
ATOM     12  C   UNL     1      -0.374   0.705  -0.823  0.00  0.00    +0.164 C 
ATOM     13  O   UNL     1      -0.451  -0.341  -1.791  0.00  0.00    -0.369 OA
ATOM     14  C   UNL     1       0.860  -0.514  -2.330  0.00  0.00    +0.176 C 
ATOM     15  C   UNL     1       1.817  -0.965  -1.226  0.00  0.00    +0.113 C 
BRANCH  10  16
ATOM     16  C   UNL     1       2.703  -0.479   0.903  0.00  0.00    +0.122 C 
BRANCH  16  20
ATOM     17  N   UNL     1       6.242   0.117   0.254  0.00  0.00    -0.271 N 
ATOM     18  N   UNL     1       6.082  -1.163  -0.293  0.00  0.00    -0.179 NA
ATOM     19  C   UNL     1       4.836  -1.526  -0.128  0.00  0.00    +0.139 A 
ATOM     20  C   UNL     1       4.161  -0.487   0.521  0.00  0.00    +0.004 A 
ATOM     21  C   UNL     1       5.047   0.511   0.744  0.00  0.00    +0.113 A 
BRANCH  17  23
ATOM     22  C   UNL     1       8.584   0.070   0.957  0.00  0.00    +0.029 C 
ATOM     23  C   UNL     1       7.484   0.893   0.283  0.00  0.00    +0.140 C 
ENDBRANCH  17  23
ENDBRANCH  16  20
ENDBRANCH  10  16
ENDBRANCH   1  12
BRANCH   9  24
ATOM     24  C   UNL     1      -2.297  -1.489   0.010  0.00  0.00    +0.251 C 
ATOM     25  N   UNL     1      -3.236  -2.368   0.412  0.00  0.00    -0.309 N 
ATOM     26  H   UNL     1      -4.088  -2.048   0.747  0.00  0.00    +0.149 HD
ATOM     27  O   UNL     1      -1.228  -1.890  -0.409  0.00  0.00    -0.270 OA
BRANCH  25  28
ATOM     28  C   UNL     1      -2.969  -3.807   0.344  0.00  0.00    +0.132 C 
BRANCH  28  29
ATOM     29  C   UNL     1      -4.189  -4.576   0.856  0.00  0.00    +0.174 C 
BRANCH  29  30
ATOM     30  O   UNL     1      -5.295  -4.354  -0.022  0.00  0.00    -0.393 OA
ATOM     31  H   UNL     1      -6.040  -4.855   0.336  0.00  0.00    +0.209 HD
ENDBRANCH  29  30
ENDBRANCH  28  29
ENDBRANCH  25  28
ENDBRANCH   9  24
TORSDOF 8
