REMARK  Name = m384
REMARK  10 active torsions:
REMARK  status: ('A' for Active; 'I' for Inactive)
REMARK    1  A    between atoms: C_1  and  O_2
REMARK    2  A    between atoms: O_2  and  C_3
REMARK    3  A    between atoms: C_8  and  C_9
REMARK    4  A    between atoms: C_11  and  C_12
REMARK    5  A    between atoms: C_12  and  N_13
REMARK    6  A    between atoms: C_16  and  C_17
REMARK    7  A    between atoms: C_19  and  C_20
REMARK    8  A    between atoms: C_23  and  C_24
REMARK    9  A    between atoms: C_29  and  C_30
REMARK   10  A    between atoms: C_31  and  C_32
REMARK                            x       y       z     vdW  Elec       q    Type
REMARK                         _______ _______ _______ _____ _____    ______ ____
ROOT
ATOM      1  N   UNL     1       0.557   2.374  -0.656  0.00  0.00    -0.242 N 
ATOM      2  C   UNL     1      -0.278   1.465  -1.201  0.00  0.00    +0.069 A 
ATOM      3  C   UNL     1      -0.021   0.615  -2.419  0.00  0.00    +0.068 C 
ATOM      4  C   UNL     1      -1.401   1.466  -0.419  0.00  0.00    +0.172 A 
ATOM      5  N   UNL     1      -1.183   2.380   0.546  0.00  0.00    -0.124 NA
ATOM      6  N   UNL     1      -0.017   2.894   0.372  0.00  0.00    -0.064 NA
ENDROOT
BRANCH   4   7
ATOM      7  C   UNL     1      -2.609   0.636  -0.600  0.00  0.00    +0.281 A 
ATOM      8  O   UNL     1      -2.821  -0.269  -1.569  0.00  0.00    -0.331 OA
ATOM      9  N   UNL     1      -3.913  -0.777  -1.428  0.00  0.00    -0.056 NA
ATOM     10  C   UNL     1      -4.521  -0.267  -0.388  0.00  0.00    +0.202 A 
ATOM     11  N   UNL     1      -3.691   0.647   0.157  0.00  0.00    -0.186 NA
BRANCH  10  12
ATOM     12  C   UNL     1      -5.875  -0.628   0.102  0.00  0.00    +0.022 A 
ATOM     13  C   UNL     1      -6.399  -0.004   1.232  0.00  0.00    +0.012 A 
ATOM     14  C   UNL     1      -7.660  -0.340   1.681  0.00  0.00    +0.004 A 
ATOM     15  C   UNL     1      -8.400  -1.301   1.017  0.00  0.00    -0.050 A 
ATOM     16  C   UNL     1      -9.774  -1.668   1.515  0.00  0.00    +0.044 C 
ATOM     17  C   UNL     1      -7.883  -1.928  -0.103  0.00  0.00    +0.004 A 
ATOM     18  C   UNL     1      -6.625  -1.596  -0.563  0.00  0.00    +0.012 A 
ENDBRANCH  10  12
ENDBRANCH   4   7
BRANCH   1  19
ATOM     19  C   UNL     1       1.891   2.717  -1.154  0.00  0.00    +0.204 C 
BRANCH  19  24
ATOM     20  C   UNL     1       4.232   0.161  -0.123  0.00  0.00    +0.231 A 
ATOM     21  O   UNL     1       4.387   1.037   0.884  0.00  0.00    -0.440 OA
ATOM     22  C   UNL     1       3.569   2.082   0.648  0.00  0.00    +0.128 A 
ATOM     23  C   UNL     1       3.411   3.306   1.513  0.00  0.00    +0.088 C 
ATOM     24  C   UNL     1       2.916   1.827  -0.500  0.00  0.00    +0.104 A 
ATOM     25  N   UNL     1       3.339   0.639  -0.958  0.00  0.00    -0.212 NA
BRANCH  20  27
ATOM     26  C   UNL     1       5.884  -1.519   0.695  0.00  0.00    +0.132 A 
ATOM     27  C   UNL     1       4.941  -1.127  -0.263  0.00  0.00    +0.078 A 
ATOM     28  C   UNL     1       4.685  -1.954  -1.358  0.00  0.00    +0.017 A 
ATOM     29  C   UNL     1       5.351  -3.155  -1.483  0.00  0.00    +0.001 A 
ATOM     30  C   UNL     1       6.278  -3.542  -0.531  0.00  0.00    +0.004 A 
ATOM     31  C   UNL     1       6.545  -2.729   0.554  0.00  0.00    +0.046 A 
BRANCH  26  33
ATOM     32  C   UNL     1       7.133  -1.390   2.547  0.00  0.00    +0.277 C 
ATOM     33  O   UNL     1       6.146  -0.719   1.761  0.00  0.00    -0.494 OA
ENDBRANCH  26  33
ENDBRANCH  20  27
ENDBRANCH  19  24
ENDBRANCH   1  19
TORSDOF 6
