REMARK  Name = m385
REMARK  6 active torsions:
REMARK  status: ('A' for Active; 'I' for Inactive)
REMARK    1  A    between atoms: C_1  and  O_2
REMARK    2  A    between atoms: O_2  and  C_3
REMARK    3  A    between atoms: C_3  and  C_5
REMARK    4  A    between atoms: C_10  and  N_11
REMARK    5  A    between atoms: C_12  and  C_14
REMARK    6  A    between atoms: C_14  and  N_15
REMARK                            x       y       z     vdW  Elec       q    Type
REMARK                         _______ _______ _______ _____ _____    ______ ____
ROOT
ATOM      1  N   UNL     1      -0.392   0.571  -1.211  0.00  0.00    -0.203 N 
ATOM      2  C   UNL     1      -1.183   1.641  -0.989  0.00  0.00    +0.352 A 
ATOM      3  O   UNL     1      -0.866   2.810  -1.125  0.00  0.00    -0.244 OA
ATOM      4  N   UNL     1      -2.385   1.186  -0.592  0.00  0.00    -0.239 N 
ATOM      5  C   UNL     1      -2.337  -0.199  -0.560  0.00  0.00    +0.203 A 
ATOM      6  C   UNL     1      -3.538  -0.942  -0.148  0.00  0.00    +0.167 A 
ATOM      7  N   UNL     1      -4.629  -0.293   0.180  0.00  0.00    -0.227 NA
ATOM      8  C   UNL     1      -4.686   1.065   0.151  0.00  0.00    +0.090 A 
ATOM      9  C   UNL     1      -5.871   1.719   0.509  0.00  0.00    +0.030 A 
ATOM     10  C   UNL     1      -5.934   3.094   0.481  0.00  0.00    +0.002 A 
ATOM     11  C   UNL     1      -4.829   3.839   0.100  0.00  0.00    +0.002 A 
ATOM     12  C   UNL     1      -3.652   3.210  -0.256  0.00  0.00    +0.028 A 
ATOM     13  N   UNL     1      -3.516  -2.322  -0.107  0.00  0.00    -0.312 N 
ATOM     14  C   UNL     1      -4.671  -3.074   0.402  0.00  0.00    +0.106 C 
ATOM     15  C   UNL     1      -4.201  -4.026   1.500  0.00  0.00    +0.019 C 
ATOM     16  C   UNL     1      -3.067  -4.902   0.963  0.00  0.00    +0.003 C 
ATOM     17  C   UNL     1      -1.888  -4.017   0.550  0.00  0.00    +0.019 C 
ATOM     18  C   UNL     1      -2.334  -3.066  -0.564  0.00  0.00    +0.106 C 
ATOM     19  C   UNL     1      -3.571   1.825  -0.234  0.00  0.00    +0.078 A 
ATOM     20  N   UNL     1      -1.144  -0.578  -0.930  0.00  0.00    -0.145 NA
ENDROOT
BRANCH   1  21
ATOM     21  C   UNL     1       1.003   0.605  -1.660  0.00  0.00    +0.244 C 
BRANCH  21  24
ATOM     22  N   UNL     1       3.251   0.702  -0.632  0.00  0.00    -0.283 N 
ATOM     23  H   UNL     1       3.629   0.611  -1.521  0.00  0.00    +0.155 HD
ATOM     24  C   UNL     1       1.915   0.663  -0.461  0.00  0.00    +0.239 C 
ATOM     25  O   UNL     1       1.446   0.675   0.657  0.00  0.00    -0.273 OA
BRANCH  22  27
ATOM     26  C   UNL     1       5.333   0.225   0.512  0.00  0.00    +0.080 A 
ATOM     27  C   UNL     1       4.089   0.872   0.467  0.00  0.00    +0.047 A 
ATOM     28  C   UNL     1       3.693   1.674   1.529  0.00  0.00    +0.024 A 
ATOM     29  C   UNL     1       4.525   1.842   2.617  0.00  0.00    +0.002 A 
ATOM     30  C   UNL     1       5.757   1.208   2.662  0.00  0.00    +0.001 A 
ATOM     31  C   UNL     1       6.164   0.404   1.621  0.00  0.00    +0.017 A 
BRANCH  26  32
ATOM     32  C   UNL     1       5.763  -0.634  -0.606  0.00  0.00    +0.341 C 
ATOM     33  O   UNL     1       5.007  -0.849  -1.533  0.00  0.00    -0.245 OA
BRANCH  32  35
ATOM     34  C   UNL     1       7.418  -2.027  -1.702  0.00  0.00    +0.280 C 
ATOM     35  O   UNL     1       6.995  -1.181  -0.601  0.00  0.00    -0.464 OA
ENDBRANCH  32  35
ENDBRANCH  26  32
ENDBRANCH  22  27
ENDBRANCH  21  24
ENDBRANCH   1  21
TORSDOF 5
