REMARK  Name = m386
REMARK  9 active torsions:
REMARK  status: ('A' for Active; 'I' for Inactive)
REMARK    1  A    between atoms: C_1  and  C_2
REMARK    2  A    between atoms: C_5  and  N_6
REMARK    3  A    between atoms: C_13  and  C_14
REMARK    4  A    between atoms: C_16  and  N_17
REMARK    5  A    between atoms: C_18  and  C_20
REMARK    6  A    between atoms: C_20  and  C_21
REMARK    7  A    between atoms: C_20  and  O_22
REMARK    8  A    between atoms: O_22  and  C_23
REMARK    9  A    between atoms: C_33  and  C_34
REMARK                            x       y       z     vdW  Elec       q    Type
REMARK                         _______ _______ _______ _____ _____    ______ ____
ROOT
ATOM      1  N   UNL     1       4.195  -0.172  -0.034  0.00  0.00    -0.214 N 
ATOM      2  C   UNL     1       2.899   0.249  -0.127  0.00  0.00    +0.168 A 
ATOM      3  C   UNL     1       2.097  -0.909  -0.071  0.00  0.00    +0.083 A 
ATOM      4  C   UNL     1       0.701  -0.758  -0.151  0.00  0.00    +0.170 A 
ATOM      5  N   UNL     1       0.206   0.467  -0.282  0.00  0.00    -0.216 NA
ATOM      6  C   UNL     1       0.997   1.523  -0.336  0.00  0.00    +0.226 A 
ATOM      7  N   UNL     1      -0.141  -1.864  -0.095  0.00  0.00    -0.199 N 
ATOM      8  C   UNL     1      -1.502  -1.843  -0.157  0.00  0.00    +0.131 A 
ATOM      9  C   UNL     1      -1.934  -3.130  -0.071  0.00  0.00    +0.068 A 
ATOM     10  C   UNL     1      -0.811  -3.952   0.056  0.00  0.00    +0.062 A 
ATOM     11  C   UNL     1      -0.829  -5.454   0.188  0.00  0.00    +0.067 C 
ATOM     12  N   UNL     1       0.259  -3.200   0.042  0.00  0.00    -0.169 NA
ATOM     13  C   UNL     1       2.970  -2.011   0.067  0.00  0.00    +0.148 A 
ATOM     14  N   UNL     1       2.307   1.433  -0.266  0.00  0.00    -0.216 NA
ATOM     15  N   UNL     1       4.195  -1.567   0.088  0.00  0.00    -0.172 NA
ENDROOT
BRANCH   1  21
ATOM     16  C   UNL     1       8.788   3.160  -0.105  0.00  0.00    +0.044 C 
ATOM     17  C   UNL     1       7.568   2.275  -0.086  0.00  0.00    -0.050 A 
ATOM     18  C   UNL     1       7.515   1.191   0.771  0.00  0.00    +0.008 A 
ATOM     19  C   UNL     1       6.396   0.381   0.794  0.00  0.00    -0.025 A 
ATOM     20  C   UNL     1       6.337  -0.796   1.733  0.00  0.00    +0.046 C 
ATOM     21  C   UNL     1       5.329   0.650  -0.051  0.00  0.00    +0.071 A 
ATOM     22  C   UNL     1       5.387   1.737  -0.915  0.00  0.00    +0.028 A 
ATOM     23  C   UNL     1       6.506   2.546  -0.930  0.00  0.00    +0.005 A 
ENDBRANCH   1  21
BRANCH   8  24
ATOM     24  N   UNL     1      -2.304  -0.711  -0.293  0.00  0.00    -0.267 N 
ATOM     25  H   UNL     1      -1.897   0.168  -0.345  0.00  0.00    +0.156 HD
ATOM     26  C   UNL     1      -3.644  -0.837  -0.350  0.00  0.00    +0.259 C 
ATOM     27  O   UNL     1      -4.153  -1.936  -0.284  0.00  0.00    -0.271 OA
BRANCH  26  28
ATOM     28  C   UNL     1      -4.511   0.387  -0.497  0.00  0.00    +0.256 C 
ATOM     29  C   UNL     1      -4.240   1.044  -1.852  0.00  0.00    +0.062 C 
BRANCH  28  30
ATOM     30  O   UNL     1      -5.887   0.009  -0.418  0.00  0.00    -0.480 OA
BRANCH  30  31
ATOM     31  C   UNL     1      -6.556   1.068   0.108  0.00  0.00    +0.122 A 
ATOM     32  C   UNL     1      -6.493   1.323   1.470  0.00  0.00    +0.045 A 
ATOM     33  C   UNL     1      -7.168   2.405   2.001  0.00  0.00    +0.004 A 
ATOM     34  C   UNL     1      -7.918   3.226   1.178  0.00  0.00    +0.000 A 
ATOM     35  C   UNL     1      -7.987   2.970  -0.179  0.00  0.00    +0.004 A 
ATOM     36  C   UNL     1      -7.308   1.893  -0.716  0.00  0.00    +0.045 A 
ENDBRANCH  30  31
ENDBRANCH  28  30
ENDBRANCH  26  28
ENDBRANCH   8  24
TORSDOF 5
