REMARK  Name = m387
REMARK  8 active torsions:
REMARK  status: ('A' for Active; 'I' for Inactive)
REMARK    1  A    between atoms: C_1  and  O_2
REMARK    2  A    between atoms: O_2  and  C_3
REMARK    3  A    between atoms: C_3  and  C_4
REMARK    4  A    between atoms: C_4  and  N_5
REMARK    5  A    between atoms: C_6  and  C_8
REMARK    6  A    between atoms: C_16  and  C_17
REMARK    7  A    between atoms: C_20  and  C_22
REMARK    8  A    between atoms: C_22  and  N_23
REMARK                            x       y       z     vdW  Elec       q    Type
REMARK                         _______ _______ _______ _____ _____    ______ ____
ROOT
ATOM      1  C   UNL     1       2.417   0.463  -0.058  0.00  0.00    +0.082 A 
ATOM      2  C   UNL     1       1.349   1.221   0.306  0.00  0.00    +0.011 A 
ATOM      3  C   UNL     1       1.390   2.615   0.137  0.00  0.00    +0.014 A 
ATOM      4  C   UNL     1       2.582   3.127  -0.430  0.00  0.00    +0.109 A 
ATOM      5  N   UNL     1       2.767   4.409  -0.653  0.00  0.00    -0.248 NA
ATOM      6  C   UNL     1       1.837   5.296  -0.356  0.00  0.00    +0.112 A 
ATOM      7  C   UNL     1       0.634   4.892   0.204  0.00  0.00    +0.020 A 
ATOM      8  C   UNL     1       0.392   3.574   0.456  0.00  0.00    +0.012 A 
ATOM      9  S   UNL     1       3.568   1.672  -0.687  0.00  0.00    -0.064 S 
ENDROOT
BRANCH   2  10
ATOM     10  C   UNL     1       0.126   0.567   0.897  0.00  0.00    +0.167 C 
ATOM     11  O   UNL     1       0.525  -0.394   1.873  0.00  0.00    -0.369 OA
ATOM     12  C   UNL     1      -0.649  -0.838   2.551  0.00  0.00    +0.179 C 
ATOM     13  C   UNL     1      -1.515  -1.663   1.593  0.00  0.00    +0.136 C 
ATOM     14  N   UNL     1      -1.800  -0.838   0.406  0.00  0.00    -0.295 N 
ATOM     15  C   UNL     1      -3.048  -0.738  -0.093  0.00  0.00    +0.233 C 
ATOM     16  O   UNL     1      -3.256  -0.053  -1.071  0.00  0.00    -0.274 OA
ATOM     17  C   UNL     1      -0.669  -0.128  -0.214  0.00  0.00    +0.144 C 
BRANCH  15  18
ATOM     18  C   UNL     1      -4.184  -1.478   0.565  0.00  0.00    +0.203 C 
BRANCH  18  19
ATOM     19  N   UNL     1      -5.428  -1.207  -0.161  0.00  0.00    -0.293 N 
ATOM     20  C   UNL     1      -6.266  -0.195   0.121  0.00  0.00    +0.216 C 
ATOM     21  O   UNL     1      -6.102   0.616   1.008  0.00  0.00    -0.276 OA
ATOM     22  C   UNL     1      -7.439  -0.209  -0.834  0.00  0.00    +0.097 C 
ATOM     23  C   UNL     1      -6.979  -1.130  -1.988  0.00  0.00    +0.028 C 
ATOM     24  C   UNL     1      -5.922  -2.011  -1.285  0.00  0.00    +0.109 C 
ENDBRANCH  18  19
ENDBRANCH  15  18
ENDBRANCH   2  10
BRANCH   1  27
ATOM     25  N   UNL     1       3.721  -1.574  -0.386  0.00  0.00    -0.309 N 
ATOM     26  H   UNL     1       4.435  -1.029  -0.752  0.00  0.00    +0.149 HD
ATOM     27  C   UNL     1       2.580  -0.995   0.036  0.00  0.00    +0.251 C 
ATOM     28  O   UNL     1       1.685  -1.679   0.495  0.00  0.00    -0.270 OA
BRANCH  25  29
ATOM     29  C   UNL     1       3.884  -3.027  -0.292  0.00  0.00    +0.132 C 
BRANCH  29  30
ATOM     30  C   UNL     1       5.259  -3.422  -0.835  0.00  0.00    +0.178 C 
BRANCH  30  32
ATOM     31  C   UNL     1       7.531  -3.275  -0.553  0.00  0.00    +0.194 C 
ATOM     32  O   UNL     1       6.277  -2.873   0.003  0.00  0.00    -0.381 OA
ENDBRANCH  30  32
ENDBRANCH  29  30
ENDBRANCH  25  29
ENDBRANCH   1  27
TORSDOF 7
