REMARK  Name = m388
REMARK  7 active torsions:
REMARK  status: ('A' for Active; 'I' for Inactive)
REMARK    1  A    between atoms: C_1  and  C_2
REMARK    2  A    between atoms: C_6  and  C_7
REMARK    3  A    between atoms: C_13  and  C_14
REMARK    4  A    between atoms: C_15  and  C_16
REMARK    5  A    between atoms: N_18  and  C_19
REMARK    6  A    between atoms: C_19  and  C_20
REMARK    7  A    between atoms: C_20  and  O_21
REMARK                            x       y       z     vdW  Elec       q    Type
REMARK                         _______ _______ _______ _____ _____    ______ ____
ROOT
ATOM      1  C   UNL     1      -1.062   0.908  -0.629  0.00  0.00    +0.011 A 
ATOM      2  C   UNL     1      -0.921   2.306  -0.623  0.00  0.00    +0.014 A 
ATOM      3  C   UNL     1      -1.950   3.021   0.037  0.00  0.00    +0.109 A 
ATOM      4  N   UNL     1      -1.960   4.332   0.123  0.00  0.00    -0.248 NA
ATOM      5  C   UNL     1      -1.000   5.059  -0.415  0.00  0.00    +0.112 A 
ATOM      6  C   UNL     1       0.050   4.451  -1.088  0.00  0.00    +0.020 A 
ATOM      7  S   UNL     1      -3.033   1.736   0.615  0.00  0.00    -0.064 S 
ATOM      8  C   UNL     1       0.107   3.093  -1.205  0.00  0.00    +0.012 A 
ATOM      9  C   UNL     1      -2.130   0.332  -0.017  0.00  0.00    +0.082 A 
ENDROOT
BRANCH   1  13
ATOM     10  C   UNL     1       3.106  -1.533  -0.641  0.00  0.00    +0.255 C 
ATOM     11  N   UNL     1       1.790  -1.528  -0.936  0.00  0.00    -0.292 N 
ATOM     12  C   UNL     1       0.855  -0.624  -0.244  0.00  0.00    +0.144 C 
ATOM     13  C   UNL     1      -0.027   0.048  -1.308  0.00  0.00    +0.167 C 
ATOM     14  O   UNL     1      -0.679  -0.954  -2.088  0.00  0.00    -0.369 OA
ATOM     15  C   UNL     1       0.317  -1.610  -2.872  0.00  0.00    +0.179 C 
ATOM     16  C   UNL     1       1.232  -2.431  -1.956  0.00  0.00    +0.136 C 
ATOM     17  O   UNL     1       3.877  -2.191  -1.314  0.00  0.00    -0.269 OA
BRANCH  10  20
ATOM     18  C   UNL     1       6.071  -1.021   0.088  0.00  0.00    +0.067 C 
ATOM     19  C   UNL     1       4.903  -0.478   0.871  0.00  0.00    +0.058 A 
ATOM     20  C   UNL     1       3.607  -0.744   0.489  0.00  0.00    +0.096 A 
ATOM     21  S   UNL     1       2.707   0.135   1.759  0.00  0.00    -0.071 S 
ATOM     22  C   UNL     1       4.081   0.746   2.627  0.00  0.00    +0.156 A 
ATOM     23  N   UNL     1       5.091   0.264   1.932  0.00  0.00    -0.252 NA
ENDBRANCH  10  20
ENDBRANCH   1  13
BRANCH   9  24
ATOM     24  C   UNL     1      -2.461  -1.095   0.097  0.00  0.00    +0.251 C 
ATOM     25  N   UNL     1      -3.576  -1.479   0.749  0.00  0.00    -0.309 N 
ATOM     26  H   UNL     1      -4.161  -0.813   1.143  0.00  0.00    +0.149 HD
ATOM     27  O   UNL     1      -1.728  -1.931  -0.398  0.00  0.00    -0.270 OA
BRANCH  25  28
ATOM     28  C   UNL     1      -3.905  -2.902   0.863  0.00  0.00    +0.132 C 
BRANCH  28  29
ATOM     29  C   UNL     1      -5.211  -3.063   1.644  0.00  0.00    +0.174 C 
BRANCH  29  30
ATOM     30  O   UNL     1      -6.285  -2.484   0.900  0.00  0.00    -0.393 OA
ATOM     31  H   UNL     1      -7.087  -2.607   1.426  0.00  0.00    +0.209 HD
ENDBRANCH  29  30
ENDBRANCH  28  29
ENDBRANCH  25  28
ENDBRANCH   9  24
TORSDOF 6
