REMARK  Name = m389
REMARK  8 active torsions:
REMARK  status: ('A' for Active; 'I' for Inactive)
REMARK    1  A    between atoms: C_1  and  O_2
REMARK    2  A    between atoms: O_2  and  C_3
REMARK    3  A    between atoms: C_3  and  C_4
REMARK    4  A    between atoms: C_4  and  N_5
REMARK    5  A    between atoms: C_6  and  C_8
REMARK    6  A    between atoms: C_16  and  C_17
REMARK    7  A    between atoms: C_20  and  C_22
REMARK    8  A    between atoms: C_26  and  C_27
REMARK                            x       y       z     vdW  Elec       q    Type
REMARK                         _______ _______ _______ _____ _____    ______ ____
ROOT
ATOM      1  C   UNL     1       1.838   0.605   0.135  0.00  0.00    +0.082 A 
ATOM      2  C   UNL     1       0.688   1.086   0.677  0.00  0.00    +0.011 A 
ATOM      3  C   UNL     1       0.410   2.462   0.622  0.00  0.00    +0.014 A 
ATOM      4  C   UNL     1       1.386   3.257  -0.028  0.00  0.00    +0.109 A 
ATOM      5  N   UNL     1       1.265   4.558  -0.163  0.00  0.00    -0.248 NA
ATOM      6  C   UNL     1       0.213   5.200   0.308  0.00  0.00    +0.112 A 
ATOM      7  C   UNL     1      -0.797   4.508   0.961  0.00  0.00    +0.020 A 
ATOM      8  C   UNL     1      -0.720   3.157   1.127  0.00  0.00    +0.012 A 
ATOM      9  S   UNL     1       2.619   2.073  -0.513  0.00  0.00    -0.064 S 
ENDROOT
BRANCH   2  10
ATOM     10  C   UNL     1      -0.284   0.145   1.341  0.00  0.00    +0.167 C 
ATOM     11  O   UNL     1       0.429  -0.759   2.184  0.00  0.00    -0.369 OA
ATOM     12  C   UNL     1      -0.529  -1.490   2.947  0.00  0.00    +0.179 C 
ATOM     13  C   UNL     1      -1.314  -2.429   2.024  0.00  0.00    +0.136 C 
ATOM     14  N   UNL     1      -1.914  -1.620   0.949  0.00  0.00    -0.292 N 
ATOM     15  C   UNL     1      -3.207  -1.769   0.600  0.00  0.00    +0.255 C 
ATOM     16  O   UNL     1      -3.935  -2.490   1.256  0.00  0.00    -0.269 OA
ATOM     17  C   UNL     1      -1.046  -0.643   0.270  0.00  0.00    +0.144 C 
BRANCH  15  18
ATOM     18  C   UNL     1      -3.736  -1.063  -0.571  0.00  0.00    +0.096 A 
ATOM     19  C   UNL     1      -5.042  -0.828  -0.943  0.00  0.00    +0.058 A 
ATOM     20  C   UNL     1      -6.189  -1.315  -0.096  0.00  0.00    +0.067 C 
ATOM     21  N   UNL     1      -5.255  -0.161  -2.047  0.00  0.00    -0.252 NA
ATOM     22  C   UNL     1      -4.263   0.271  -2.798  0.00  0.00    +0.156 A 
ATOM     23  S   UNL     1      -2.868  -0.273  -1.919  0.00  0.00    -0.071 S 
ENDBRANCH  15  18
ENDBRANCH   2  10
BRANCH   1  26
ATOM     24  N   UNL     1       3.494  -1.071  -0.503  0.00  0.00    -0.309 N 
ATOM     25  H   UNL     1       4.024  -0.361  -0.898  0.00  0.00    +0.149 HD
ATOM     26  C   UNL     1       2.318  -0.784   0.089  0.00  0.00    +0.251 C 
ATOM     27  O   UNL     1       1.653  -1.674   0.584  0.00  0.00    -0.270 OA
BRANCH  24  28
ATOM     28  C   UNL     1       3.972  -2.455  -0.549  0.00  0.00    +0.132 C 
BRANCH  28  29
ATOM     29  C   UNL     1       5.321  -2.505  -1.271  0.00  0.00    +0.178 C 
BRANCH  29  31
ATOM     30  C   UNL     1       7.527  -1.876  -1.228  0.00  0.00    +0.194 C 
ATOM     31  O   UNL     1       6.296  -1.793  -0.507  0.00  0.00    -0.381 OA
ENDBRANCH  29  31
ENDBRANCH  28  29
ENDBRANCH  24  28
ENDBRANCH   1  26
TORSDOF 6
