REMARK  Name = m390
REMARK  7 active torsions:
REMARK  status: ('A' for Active; 'I' for Inactive)
REMARK    1  A    between atoms: C_1  and  C_2
REMARK    2  A    between atoms: C_2  and  N_3
REMARK    3  A    between atoms: C_6  and  C_7
REMARK    4  A    between atoms: C_10  and  C_11
REMARK    5  A    between atoms: N_13  and  C_14
REMARK    6  A    between atoms: C_14  and  C_15
REMARK    7  A    between atoms: N_22  and  C_23
REMARK                            x       y       z     vdW  Elec       q    Type
REMARK                         _______ _______ _______ _____ _____    ______ ____
ROOT
ATOM      1  N   UNL     1       3.568   2.030  -0.240  0.00  0.00    -0.258 N 
ATOM      2  C   UNL     1       4.255   0.879  -0.121  0.00  0.00    +0.353 A 
ATOM      3  O   UNL     1       5.470   0.911  -0.080  0.00  0.00    -0.244 OA
ATOM      4  N   UNL     1       3.623  -0.304  -0.037  0.00  0.00    -0.181 N 
ATOM      5  N   UNL     1       2.225  -0.379  -0.081  0.00  0.00    -0.153 NA
ATOM      6  C   UNL     1       1.517   0.721  -0.201  0.00  0.00    +0.196 A 
ATOM      7  C   UNL     1       2.219   2.012  -0.287  0.00  0.00    +0.286 A 
ATOM      8  O   UNL     1       1.592   3.049  -0.400  0.00  0.00    -0.265 OA
ENDROOT
BRANCH   4   9
ATOM      9  C   UNL     1       4.372  -1.479   0.092  0.00  0.00    +0.071 A 
ATOM     10  C   UNL     1       5.498  -1.501   0.906  0.00  0.00    +0.028 A 
ATOM     11  C   UNL     1       6.232  -2.663   1.035  0.00  0.00    +0.002 A 
ATOM     12  C   UNL     1       5.855  -3.801   0.346  0.00  0.00    +0.000 A 
ATOM     13  C   UNL     1       4.738  -3.781  -0.470  0.00  0.00    +0.002 A 
ATOM     14  C   UNL     1       3.996  -2.624  -0.599  0.00  0.00    +0.028 A 
ENDBRANCH   4   9
BRANCH   6  15
ATOM     15  C   UNL     1       0.037   0.663  -0.250  0.00  0.00    +0.228 A 
ATOM     16  N   UNL     1      -0.722  -0.451  -0.187  0.00  0.00    -0.182 NA
ATOM     17  C   UNL     1      -1.968  -0.034  -0.263  0.00  0.00    +0.314 A 
ATOM     18  O   UNL     1      -1.928   1.302  -0.378  0.00  0.00    -0.328 OA
ATOM     19  N   UNL     1      -0.776   1.683  -0.369  0.00  0.00    -0.054 NA
BRANCH  17  20
ATOM     20  C   UNL     1      -3.185  -0.881  -0.233  0.00  0.00    +0.302 C 
ATOM     21  N   UNL     1      -4.403  -0.313  -0.327  0.00  0.00    -0.305 N 
ATOM     22  H   UNL     1      -4.484   0.649  -0.413  0.00  0.00    +0.149 HD
ATOM     23  O   UNL     1      -3.083  -2.087  -0.125  0.00  0.00    -0.265 OA
BRANCH  21  24
ATOM     24  C   UNL     1      -5.606  -1.150  -0.298  0.00  0.00    +0.136 C 
BRANCH  24  25
ATOM     25  C   UNL     1      -6.847  -0.264  -0.419  0.00  0.00    +0.135 C 
ATOM     26  O   UNL     1      -6.918   0.634   0.701  0.00  0.00    -0.375 OA
ATOM     27  C   UNL     1      -8.318   0.821   1.003  0.00  0.00    +0.160 C 
ATOM     28  C   UNL     1      -8.919  -0.596   0.820  0.00  0.00    +0.031 C 
ATOM     29  C   UNL     1      -8.118  -1.135  -0.390  0.00  0.00    +0.035 C 
ENDBRANCH  24  25
ENDBRANCH  21  24
ENDBRANCH  17  20
ENDBRANCH   6  15
BRANCH   1  31
ATOM     30  C   UNL     1       4.483   3.873   1.082  0.00  0.00    +0.027 C 
ATOM     31  C   UNL     1       4.285   3.305  -0.325  0.00  0.00    +0.127 C 
ENDBRANCH   1  31
TORSDOF 6
