REMARK  Name = m391
REMARK  7 active torsions:
REMARK  status: ('A' for Active; 'I' for Inactive)
REMARK    1  A    between atoms: C_1  and  C_2
REMARK    2  A    between atoms: N_6  and  S_7
REMARK    3  A    between atoms: S_7  and  C_10
REMARK    4  A    between atoms: C_12  and  C_13
REMARK    5  A    between atoms: C_15  and  C_16
REMARK    6  A    between atoms: C_17  and  C_18
REMARK    7  A    between atoms: N_26  and  C_27
REMARK                            x       y       z     vdW  Elec       q    Type
REMARK                         _______ _______ _______ _____ _____    ______ ____
ROOT
ATOM      1  C   UNL     1      -2.014  -0.599  -1.091  0.00  0.00    +0.127 A 
ATOM      2  C   UNL     1      -2.215   0.698  -1.421  0.00  0.00    +0.114 A 
ATOM      3  N   UNL     1      -1.039   1.368  -1.282  0.00  0.00    -0.346 N 
ATOM      4  C   UNL     1      -0.833   2.795  -1.538  0.00  0.00    +0.149 C 
ATOM      5  C   UNL     1      -0.075   0.480  -0.867  0.00  0.00    +0.076 A 
ATOM      6  C   UNL     1      -0.665  -0.748  -0.743  0.00  0.00    +0.058 A 
ENDROOT
BRANCH   5   7
ATOM      7  C   UNL     1       1.335   0.794  -0.603  0.00  0.00    +0.126 A 
ATOM      8  S   UNL     1       2.651  -0.287  -0.057  0.00  0.00    -0.061 S 
ATOM      9  C   UNL     1       3.947   0.945  -0.023  0.00  0.00    +0.097 A 
ATOM     10  C   UNL     1       3.241   2.070  -0.428  0.00  0.00    +0.058 A 
ATOM     11  C   UNL     1       3.934   3.403  -0.550  0.00  0.00    +0.067 C 
ATOM     12  N   UNL     1       1.972   1.960  -0.703  0.00  0.00    -0.242 NA
BRANCH   9  13
ATOM     13  C   UNL     1       5.359   0.807   0.339  0.00  0.00    +0.255 C 
ATOM     14  N   UNL     1       5.846  -0.395   0.709  0.00  0.00    -0.297 N 
ATOM     15  C   UNL     1       5.070  -1.645   0.799  0.00  0.00    +0.108 C 
ATOM     16  C   UNL     1       6.122  -2.774   0.640  0.00  0.00    +0.020 C 
ATOM     17  C   UNL     1       7.331  -2.181   1.411  0.00  0.00    +0.020 C 
ATOM     18  C   UNL     1       7.237  -0.673   1.095  0.00  0.00    +0.108 C 
ATOM     19  O   UNL     1       6.094   1.777   0.305  0.00  0.00    -0.269 OA
ENDBRANCH   9  13
ENDBRANCH   5   7
BRANCH   1  20
ATOM     20  S   UNL     1      -3.229  -1.874  -1.105  0.00  0.00    +0.075 S 
ATOM     21  O   UNL     1      -4.247  -1.428  -1.990  0.00  0.00    -0.150 OA
ATOM     22  O   UNL     1      -2.509  -3.093  -1.227  0.00  0.00    -0.150 OA
BRANCH  20  28
ATOM     23  C   UNL     1      -6.905   2.525   2.131  0.00  0.00    +0.045 C 
ATOM     24  C   UNL     1      -6.113   1.318   1.699  0.00  0.00    -0.032 A 
ATOM     25  C   UNL     1      -5.514   1.285   0.456  0.00  0.00    +0.116 A 
ATOM     26  N   UNL     1      -4.814   0.236   0.070  0.00  0.00    -0.239 NA
ATOM     27  C   UNL     1      -4.666  -0.825   0.848  0.00  0.00    +0.138 A 
ATOM     28  N   UNL     1      -3.924  -1.911   0.398  0.00  0.00    -0.199 N 
ATOM     29  H   UNL     1      -3.814  -2.691   0.964  0.00  0.00    +0.175 HD
ATOM     30  C   UNL     1      -5.247  -0.863   2.111  0.00  0.00    +0.045 A 
ATOM     31  C   UNL     1      -5.983   0.225   2.546  0.00  0.00    +0.008 A 
ENDBRANCH  20  28
ENDBRANCH   1  20
TORSDOF 4
