REMARK  Name = m392
REMARK  7 active torsions:
REMARK  status: ('A' for Active; 'I' for Inactive)
REMARK    1  A    between atoms: C_2  and  C_13
REMARK    2  A    between atoms: N_3  and  C_4
REMARK    3  A    between atoms: C_4  and  C_5
REMARK    4  A    between atoms: C_5  and  C_6
REMARK    5  A    between atoms: C_6  and  C_7
REMARK    6  A    between atoms: C_7  and  O_8
REMARK    7  A    between atoms: C_18  and  C_19
REMARK                            x       y       z     vdW  Elec       q    Type
REMARK                         _______ _______ _______ _____ _____    ______ ____
ROOT
ATOM      1  C   UNL     1      -0.377   1.702  -0.324  0.00  0.00    +0.085 A 
ATOM      2  C   UNL     1      -1.829   1.912  -0.339  0.00  0.00    +0.140 A 
ATOM      3  N   UNL     1      -2.028   3.197  -0.538  0.00  0.00    -0.170 NA
ATOM      4  N   UNL     1      -0.792   3.836  -0.663  0.00  0.00    -0.283 N 
ATOM      5  H   UNL     1      -0.667   4.785  -0.819  0.00  0.00    +0.188 HD
ATOM      6  C   UNL     1       0.197   2.938  -0.534  0.00  0.00    +0.118 A 
ENDROOT
BRANCH   2   7
ATOM      7  C   UNL     1      -2.868   0.878  -0.157  0.00  0.00    +0.157 A 
ATOM      8  O   UNL     1      -2.787  -0.390  -0.604  0.00  0.00    -0.453 OA
ATOM      9  C   UNL     1      -3.894  -1.088  -0.277  0.00  0.00    +0.136 A 
ATOM     10  C   UNL     1      -4.752  -0.217   0.418  0.00  0.00    +0.021 A 
ATOM     11  C   UNL     1      -5.989  -0.673   0.879  0.00  0.00    +0.011 A 
ATOM     12  C   UNL     1      -6.360  -1.969   0.651  0.00  0.00    +0.001 A 
ATOM     13  C   UNL     1      -5.517  -2.832  -0.034  0.00  0.00    +0.004 A 
ATOM     14  C   UNL     1      -4.292  -2.400  -0.496  0.00  0.00    +0.047 A 
ATOM     15  C   UNL     1      -4.050   1.066   0.480  0.00  0.00    +0.060 A 
ENDBRANCH   2   7
BRANCH   1  17
ATOM     16  O   UNL     1      -0.305  -0.599   0.047  0.00  0.00    -0.270 OA
ATOM     17  C   UNL     1       0.328   0.424  -0.129  0.00  0.00    +0.248 C 
ATOM     18  N   UNL     1       1.675   0.387  -0.151  0.00  0.00    -0.311 N 
ATOM     19  H   UNL     1       2.181   1.203  -0.292  0.00  0.00    +0.149 HD
BRANCH  18  20
ATOM     20  C   UNL     1       2.377  -0.885   0.037  0.00  0.00    +0.113 C 
BRANCH  20  21
ATOM     21  C   UNL     1       3.880  -0.671  -0.147  0.00  0.00    +0.014 C 
ATOM     22  C   UNL     1       4.179  -0.115  -1.557  0.00  0.00    +0.168 C 
ATOM     23  O   UNL     1       5.412  -0.761  -1.952  0.00  0.00    -0.379 OA
ATOM     24  C   UNL     1       5.292  -2.126  -1.498  0.00  0.00    +0.160 C 
ATOM     25  C   UNL     1       4.629  -2.022  -0.107  0.00  0.00    +0.039 C 
BRANCH  21  26
ATOM     26  C   UNL     1       4.421   0.274   0.927  0.00  0.00    +0.038 C 
BRANCH  26  27
ATOM     27  C   UNL     1       4.137  -0.312   2.312  0.00  0.00    +0.156 C 
BRANCH  27  28
ATOM     28  O   UNL     1       4.749   0.507   3.311  0.00  0.00    -0.395 OA
ATOM     29  H   UNL     1       4.546   0.103   4.166  0.00  0.00    +0.209 HD
ENDBRANCH  27  28
ENDBRANCH  26  27
ENDBRANCH  21  26
ENDBRANCH  20  21
ENDBRANCH  18  20
ENDBRANCH   1  17
TORSDOF 7
