REMARK  Name = m393
REMARK  9 active torsions:
REMARK  status: ('A' for Active; 'I' for Inactive)
REMARK    1  A    between atoms: C_1  and  O_2
REMARK    2  A    between atoms: O_2  and  C_3
REMARK    3  A    between atoms: C_7  and  C_8
REMARK    4  A    between atoms: N_12  and  C_13
REMARK    5  A    between atoms: N_12  and  C_14
REMARK    6  A    between atoms: C_16  and  C_17
REMARK    7  A    between atoms: C_20  and  C_22
REMARK    8  A    between atoms: C_25  and  C_26
REMARK    9  A    between atoms: C_28  and  C_29
REMARK                            x       y       z     vdW  Elec       q    Type
REMARK                         _______ _______ _______ _____ _____    ______ ____
ROOT
ATOM      1  C   UNL     1       2.948   0.207  -0.227  0.00  0.00    +0.024 A 
ATOM      2  C   UNL     1       2.167  -0.888   0.152  0.00  0.00    +0.084 A 
ATOM      3  N   UNL     1       2.709  -2.093   0.151  0.00  0.00    -0.216 NA
ATOM      4  C   UNL     1       3.977  -2.269  -0.192  0.00  0.00    +0.218 A 
ATOM      5  N   UNL     1       4.508  -3.546  -0.174  0.00  0.00    -0.306 N 
ATOM      6  C   UNL     1       3.671  -4.682   0.220  0.00  0.00    +0.132 C 
ATOM      7  C   UNL     1       5.907  -3.763  -0.550  0.00  0.00    +0.132 C 
ATOM      8  N   UNL     1       4.751  -1.254  -0.552  0.00  0.00    -0.222 NA
ATOM      9  C   UNL     1       4.280  -0.020  -0.582  0.00  0.00    +0.124 A 
ENDROOT
BRANCH   2  10
ATOM     10  C   UNL     1       0.725  -0.699   0.544  0.00  0.00    +0.185 C 
ATOM     11  O   UNL     1       0.449  -1.456   1.722  0.00  0.00    -0.367 OA
ATOM     12  C   UNL     1      -0.854  -1.093   2.177  0.00  0.00    +0.179 C 
ATOM     13  C   UNL     1      -1.905  -1.606   1.187  0.00  0.00    +0.136 C 
ATOM     14  N   UNL     1      -1.580  -1.071  -0.146  0.00  0.00    -0.292 N 
ATOM     15  C   UNL     1      -2.525  -0.508  -0.925  0.00  0.00    +0.250 C 
ATOM     16  O   UNL     1      -2.215   0.014  -1.977  0.00  0.00    -0.270 OA
ATOM     17  C   UNL     1      -0.181  -1.175  -0.597  0.00  0.00    +0.146 C 
BRANCH  15  18
ATOM     18  C   UNL     1      -3.941  -0.527  -0.498  0.00  0.00    +0.076 A 
ATOM     19  C   UNL     1      -4.713   0.640  -0.515  0.00  0.00    +0.054 A 
ATOM     20  C   UNL     1      -4.117   1.945  -0.976  0.00  0.00    +0.066 C 
ATOM     21  N   UNL     1      -5.976   0.577  -0.131  0.00  0.00    -0.237 NA
ATOM     22  C   UNL     1      -6.505  -0.561   0.274  0.00  0.00    +0.126 A 
ATOM     23  C   UNL     1      -7.948  -0.580   0.708  0.00  0.00    +0.088 C 
ATOM     24  N   UNL     1      -5.813  -1.683   0.311  0.00  0.00    -0.240 NA
ATOM     25  C   UNL     1      -4.545  -1.711  -0.061  0.00  0.00    +0.127 A 
ENDBRANCH  15  18
ENDBRANCH   2  10
BRANCH   1  28
ATOM     26  C   UNL     1       2.510   3.897   0.369  0.00  0.00    +0.121 A 
ATOM     27  C   UNL     1       3.050   2.621   0.385  0.00  0.00    +0.054 A 
ATOM     28  C   UNL     1       2.378   1.577  -0.246  0.00  0.00    -0.011 A 
ATOM     29  C   UNL     1       1.173   1.823  -0.900  0.00  0.00    +0.009 A 
ATOM     30  C   UNL     1       0.645   3.099  -0.916  0.00  0.00    +0.004 A 
ATOM     31  C   UNL     1       1.309   4.134  -0.285  0.00  0.00    +0.045 A 
BRANCH  26  33
ATOM     32  C   UNL     1       2.368   6.090   0.792  0.00  0.00    +0.277 C 
ATOM     33  O   UNL     1       3.160   4.917   0.988  0.00  0.00    -0.495 OA
ENDBRANCH  26  33
ENDBRANCH   1  28
TORSDOF 4
