REMARK  Name = m394
REMARK  8 active torsions:
REMARK  status: ('A' for Active; 'I' for Inactive)
REMARK    1  A    between atoms: C_1  and  O_2
REMARK    2  A    between atoms: O_2  and  C_3
REMARK    3  A    between atoms: C_6  and  C_7
REMARK    4  A    between atoms: N_11  and  C_12
REMARK    5  A    between atoms: N_11  and  C_13
REMARK    6  A    between atoms: C_15  and  C_16
REMARK    7  A    between atoms: C_19  and  C_21
REMARK    8  A    between atoms: N_26  and  C_27
REMARK                            x       y       z     vdW  Elec       q    Type
REMARK                         _______ _______ _______ _____ _____    ______ ____
ROOT
ATOM      1  C   UNL     1      -3.215   0.412   0.060  0.00  0.00    +0.024 A 
ATOM      2  C   UNL     1      -2.440  -0.715  -0.225  0.00  0.00    +0.084 A 
ATOM      3  N   UNL     1      -2.994  -1.912  -0.147  0.00  0.00    -0.216 NA
ATOM      4  C   UNL     1      -4.270  -2.050   0.184  0.00  0.00    +0.218 A 
ATOM      5  N   UNL     1      -4.814  -3.320   0.247  0.00  0.00    -0.306 N 
ATOM      6  C   UNL     1      -3.983  -4.489  -0.049  0.00  0.00    +0.132 C 
ATOM      7  C   UNL     1      -6.223  -3.497   0.611  0.00  0.00    +0.132 C 
ATOM      8  N   UNL     1      -5.039  -1.005   0.456  0.00  0.00    -0.222 NA
ATOM      9  C   UNL     1      -4.556   0.224   0.405  0.00  0.00    +0.124 A 
ENDROOT
BRANCH   2  10
ATOM     10  C   UNL     1      -0.988  -0.568  -0.603  0.00  0.00    +0.185 C 
ATOM     11  O   UNL     1      -0.700  -1.411  -1.717  0.00  0.00    -0.367 OA
ATOM     12  C   UNL     1       0.615  -1.094  -2.173  0.00  0.00    +0.179 C 
ATOM     13  C   UNL     1       1.643  -1.543  -1.129  0.00  0.00    +0.136 C 
ATOM     14  N   UNL     1       1.299  -0.911   0.156  0.00  0.00    -0.292 N 
ATOM     15  C   UNL     1       2.237  -0.302   0.909  0.00  0.00    +0.248 C 
ATOM     16  O   UNL     1       1.916   0.277   1.929  0.00  0.00    -0.270 OA
ATOM     17  C   UNL     1      -0.108  -0.969   0.586  0.00  0.00    +0.146 C 
BRANCH  15  18
ATOM     18  C   UNL     1       3.652  -0.338   0.496  0.00  0.00    +0.053 A 
ATOM     19  C   UNL     1       4.409  -1.473   0.706  0.00  0.00    +0.101 A 
ATOM     20  N   UNL     1       5.699  -1.513   0.325  0.00  0.00    -0.318 N 
ATOM     21  C   UNL     1       6.481  -2.731   0.553  0.00  0.00    +0.152 C 
ATOM     22  C   UNL     1       6.284  -0.449  -0.256  0.00  0.00    +0.251 A 
ATOM     23  O   UNL     1       7.457  -0.509  -0.586  0.00  0.00    -0.268 OA
ATOM     24  C   UNL     1       5.553   0.732  -0.485  0.00  0.00    +0.071 A 
ATOM     25  C   UNL     1       4.247   0.793  -0.114  0.00  0.00    +0.020 A 
ENDBRANCH  15  18
ENDBRANCH   2  10
BRANCH   1  29
ATOM     26  C   UNL     1      -1.541   4.317  -0.138  0.00  0.00    +0.120 A 
ATOM     27  C   UNL     1      -0.891   3.321   0.577  0.00  0.00    +0.046 A 
ATOM     28  C   UNL     1      -1.435   2.055   0.648  0.00  0.00    +0.012 A 
ATOM     29  C   UNL     1      -2.631   1.774  -0.009  0.00  0.00    -0.014 A 
ATOM     30  C   UNL     1      -3.279   2.776  -0.731  0.00  0.00    +0.012 A 
ATOM     31  C   UNL     1      -2.733   4.041  -0.793  0.00  0.00    +0.046 A 
BRANCH  26  33
ATOM     32  C   UNL     1       0.202   5.535   0.561  0.00  0.00    +0.277 C 
ATOM     33  O   UNL     1      -1.006   5.565  -0.201  0.00  0.00    -0.495 OA
ENDBRANCH  26  33
ENDBRANCH   1  29
TORSDOF 4
