REMARK  Name = m395
REMARK  3 active torsions:
REMARK  status: ('A' for Active; 'I' for Inactive)
REMARK    1  A    between atoms: C_2  and  C_3
REMARK    2  A    between atoms: C_3  and  N_4
REMARK    3  A    between atoms: N_24  and  C_25
REMARK                            x       y       z     vdW  Elec       q    Type
REMARK                         _______ _______ _______ _____ _____    ______ ____
ROOT
ATOM      1  N   UNL     1       0.259  -0.331  -1.352  0.00  0.00    -0.203 N 
ATOM      2  C   UNL     1       0.689  -1.591  -1.132  0.00  0.00    +0.352 A 
ATOM      3  O   UNL     1       0.125  -2.613  -1.479  0.00  0.00    -0.244 OA
ATOM      4  N   UNL     1       1.854  -1.516  -0.463  0.00  0.00    -0.239 N 
ATOM      5  C   UNL     1       2.150  -0.177  -0.256  0.00  0.00    +0.203 A 
ATOM      6  C   UNL     1       3.383   0.173   0.466  0.00  0.00    +0.167 A 
ATOM      7  N   UNL     1       4.180  -0.773   0.900  0.00  0.00    -0.227 NA
ATOM      8  C   UNL     1       3.897  -2.089   0.701  0.00  0.00    +0.090 A 
ATOM      9  C   UNL     1       4.775  -3.068   1.181  0.00  0.00    +0.030 A 
ATOM     10  C   UNL     1       4.493  -4.401   0.981  0.00  0.00    +0.002 A 
ATOM     11  C   UNL     1       3.345  -4.782   0.306  0.00  0.00    +0.002 A 
ATOM     12  C   UNL     1       2.469  -3.829  -0.173  0.00  0.00    +0.028 A 
ATOM     13  N   UNL     1       3.701   1.499   0.687  0.00  0.00    -0.311 N 
ATOM     14  C   UNL     1       2.749   2.547   0.314  0.00  0.00    +0.117 C 
ATOM     15  C   UNL     1       3.358   3.440  -0.762  0.00  0.00    +0.088 C 
ATOM     16  S   UNL     1       4.888   4.183  -0.129  0.00  0.00    -0.158 S 
ATOM     17  C   UNL     1       5.809   2.676   0.293  0.00  0.00    +0.088 C 
ATOM     18  C   UNL     1       4.990   1.847   1.286  0.00  0.00    +0.117 C 
ATOM     19  C   UNL     1       2.736  -2.481   0.019  0.00  0.00    +0.078 A 
ATOM     20  N   UNL     1       1.198   0.542  -0.786  0.00  0.00    -0.145 NA
ENDROOT
BRANCH   1  21
ATOM     21  C   UNL     1      -0.970   0.054  -2.051  0.00  0.00    +0.244 C 
BRANCH  21  23
ATOM     22  O   UNL     1      -1.901  -0.077   0.114  0.00  0.00    -0.273 OA
ATOM     23  C   UNL     1      -2.101   0.153  -1.060  0.00  0.00    +0.239 C 
ATOM     24  N   UNL     1      -3.337   0.490  -1.479  0.00  0.00    -0.284 N 
ATOM     25  H   UNL     1      -3.484   0.736  -2.406  0.00  0.00    +0.155 HD
BRANCH  24  26
ATOM     26  C   UNL     1      -4.408   0.484  -0.577  0.00  0.00    +0.037 A 
ATOM     27  C   UNL     1      -5.675   0.112  -1.005  0.00  0.00    +0.072 A 
ATOM     28  C   UNL     1      -6.733   0.101  -0.112  0.00  0.00    +0.168 A 
ATOM     29  O   UNL     1      -8.049  -0.221  -0.273  0.00  0.00    -0.453 OA
ATOM     30  C   UNL     1      -8.727   0.350   0.861  0.00  0.00    +0.466 C 
ATOM     31  O   UNL     1      -7.713   0.388   1.882  0.00  0.00    -0.453 OA
ATOM     32  C   UNL     1      -6.526   0.476   1.214  0.00  0.00    +0.166 A 
ATOM     33  C   UNL     1      -5.261   0.853   1.636  0.00  0.00    +0.051 A 
ATOM     34  C   UNL     1      -4.205   0.857   0.745  0.00  0.00    +0.027 A 
ENDBRANCH  24  26
ENDBRANCH  21  23
ENDBRANCH   1  21
TORSDOF 3
