REMARK  Name = m396
REMARK  8 active torsions:
REMARK  status: ('A' for Active; 'I' for Inactive)
REMARK    1  A    between atoms: C_1  and  O_2
REMARK    2  A    between atoms: O_2  and  C_3
REMARK    3  A    between atoms: C_6  and  C_7
REMARK    4  A    between atoms: C_7  and  N_8
REMARK    5  A    between atoms: C_13  and  C_14
REMARK    6  A    between atoms: C_16  and  C_17
REMARK    7  A    between atoms: C_21  and  C_23
REMARK    8  A    between atoms: N_27  and  C_28
REMARK                            x       y       z     vdW  Elec       q    Type
REMARK                         _______ _______ _______ _____ _____    ______ ____
ROOT
ATOM      1  N   UNL     1       3.221  -1.509   0.878  0.00  0.00    -0.251 N 
ATOM      2  C   UNL     1       1.957  -1.556   0.317  0.00  0.00    +0.135 A 
ATOM      3  C   UNL     1       1.866  -2.620  -0.581  0.00  0.00    +0.023 A 
ATOM      4  C   UNL     1       0.688  -2.841  -1.252  0.00  0.00    +0.047 A 
ATOM      5  N   UNL     1      -0.337  -2.027  -1.031  0.00  0.00    -0.236 NA
ATOM      6  C   UNL     1      -0.228  -1.025  -0.183  0.00  0.00    +0.136 A 
ATOM      7  C   UNL     1       0.562  -3.988  -2.223  0.00  0.00    +0.066 C 
ATOM      8  C   UNL     1       3.210  -3.304  -0.564  0.00  0.00    +0.136 C 
ATOM      9  N   UNL     1       0.884  -0.781   0.479  0.00  0.00    -0.216 NA
ATOM     10  C   UNL     1       4.020  -2.492   0.426  0.00  0.00    +0.226 C 
ATOM     11  O   UNL     1       5.171  -2.691   0.751  0.00  0.00    -0.275 OA
ENDROOT
BRANCH   6  12
ATOM     12  C   UNL     1      -1.417  -0.126   0.039  0.00  0.00    +0.076 C 
ATOM     13  C   UNL     1      -2.680  -0.952   0.388  0.00  0.00    +0.119 C 
ATOM     14  N   UNL     1      -3.812  -0.101  -0.019  0.00  0.00    -0.296 N 
ATOM     15  C   UNL     1      -5.064  -0.168   0.477  0.00  0.00    +0.265 C 
ATOM     16  O   UNL     1      -5.356  -1.038   1.275  0.00  0.00    -0.268 OA
ATOM     17  C   UNL     1      -3.351   0.833  -1.057  0.00  0.00    +0.109 C 
ATOM     18  C   UNL     1      -1.849   0.560  -1.284  0.00  0.00    +0.032 C 
BRANCH  15  19
ATOM     19  C   UNL     1      -6.076   0.813   0.054  0.00  0.00    +0.123 A 
ATOM     20  N   UNL     1      -7.346   0.942   0.541  0.00  0.00    -0.262 N 
ATOM     21  C   UNL     1      -7.934   0.113   1.597  0.00  0.00    +0.173 C 
ATOM     22  N   UNL     1      -7.943   1.907  -0.061  0.00  0.00    -0.179 NA
ATOM     23  C   UNL     1      -7.159   2.457  -0.953  0.00  0.00    +0.135 A 
ATOM     24  C   UNL     1      -5.935   1.785  -0.921  0.00  0.00    +0.054 A 
ENDBRANCH  15  19
ENDBRANCH   6  12
BRANCH   1  25
ATOM     25  C   UNL     1       3.640  -0.504   1.858  0.00  0.00    +0.150 C 
BRANCH  25  29
ATOM     26  C   UNL     1       5.302   2.866  -0.177  0.00  0.00    +0.120 A 
ATOM     27  C   UNL     1       6.119   1.810   0.201  0.00  0.00    +0.046 A 
ATOM     28  C   UNL     1       5.580   0.724   0.863  0.00  0.00    +0.009 A 
ATOM     29  C   UNL     1       4.226   0.684   1.140  0.00  0.00    -0.029 A 
ATOM     30  C   UNL     1       3.409   1.732   0.760  0.00  0.00    +0.009 A 
ATOM     31  C   UNL     1       3.944   2.823   0.102  0.00  0.00    +0.046 A 
BRANCH  26  33
ATOM     32  C   UNL     1       7.231   3.688  -0.962  0.00  0.00    +0.277 C 
ATOM     33  O   UNL     1       5.830   3.938  -0.825  0.00  0.00    -0.495 OA
ENDBRANCH  26  33
ENDBRANCH  25  29
ENDBRANCH   1  25
TORSDOF 5
