REMARK  Name = m397
REMARK  5 active torsions:
REMARK  status: ('A' for Active; 'I' for Inactive)
REMARK    1  A    between atoms: C_8  and  S_9
REMARK    2  A    between atoms: S_9  and  N_12
REMARK    3  A    between atoms: N_23  and  C_24
REMARK    4  A    between atoms: C_24  and  C_25
REMARK    5  A    between atoms: C_28  and  C_29
REMARK                            x       y       z     vdW  Elec       q    Type
REMARK                         _______ _______ _______ _____ _____    ______ ____
ROOT
ATOM      1  O   UNL     1      -4.810   2.210  -0.085  0.00  0.00    -0.271 OA
ATOM      2  C   UNL     1      -3.650   2.333   0.251  0.00  0.00    +0.258 C 
ATOM      3  N   UNL     1      -2.666   1.639  -0.374  0.00  0.00    -0.258 N 
ATOM      4  C   UNL     1      -1.356   1.854   0.089  0.00  0.00    +0.081 A 
ATOM      5  C   UNL     1      -1.167   2.387   1.361  0.00  0.00    +0.143 A 
ATOM      6  C   UNL     1       0.123   2.622   1.815  0.00  0.00    +0.049 A 
ATOM      7  C   UNL     1       1.206   2.320   1.012  0.00  0.00    +0.032 A 
ATOM      8  C   UNL     1       1.014   1.783  -0.248  0.00  0.00    +0.111 A 
ATOM      9  O   UNL     1      -2.224   2.676   2.160  0.00  0.00    -0.481 OA
ATOM     10  C   UNL     1      -0.268   1.548  -0.711  0.00  0.00    +0.056 A 
ATOM     11  C   UNL     1      -3.262   3.255   1.379  0.00  0.00    +0.325 C 
ENDROOT
BRANCH   8  12
ATOM     12  S   UNL     1       2.402   1.397  -1.262  0.00  0.00    +0.075 S 
ATOM     13  O   UNL     1       3.468   2.203  -0.781  0.00  0.00    -0.150 OA
ATOM     14  O   UNL     1       1.914   1.389  -2.597  0.00  0.00    -0.150 OA
BRANCH  12  15
ATOM     15  N   UNL     1       2.836  -0.167  -0.933  0.00  0.00    -0.202 N 
ATOM     16  C   UNL     1       3.754  -0.553   0.045  0.00  0.00    +0.054 A 
ATOM     17  C   UNL     1       3.907  -1.930   0.087  0.00  0.00    -0.023 A 
ATOM     18  C   UNL     1       4.772  -2.511   0.994  0.00  0.00    +0.005 A 
ATOM     19  C   UNL     1       5.489  -1.722   1.874  0.00  0.00    +0.000 A 
ATOM     20  C   UNL     1       5.340  -0.348   1.844  0.00  0.00    +0.002 A 
ATOM     21  C   UNL     1       3.016  -2.546  -0.969  0.00  0.00    +0.058 C 
ATOM     22  C   UNL     1       4.478   0.237   0.940  0.00  0.00    +0.025 A 
ATOM     23  C   UNL     1       2.317  -1.347  -1.630  0.00  0.00    +0.136 C 
ENDBRANCH  12  15
ENDBRANCH   8  12
BRANCH   3  24
ATOM     24  C   UNL     1      -2.952   0.718  -1.476  0.00  0.00    +0.193 C 
BRANCH  24  25
ATOM     25  C   UNL     1      -3.204  -0.662  -0.926  0.00  0.00    +0.189 A 
ATOM     26  N   UNL     1      -2.281  -1.620  -0.725  0.00  0.00    -0.194 NA
ATOM     27  C   UNL     1      -2.937  -2.645  -0.236  0.00  0.00    +0.231 A 
ATOM     28  O   UNL     1      -4.222  -2.285  -0.164  0.00  0.00    -0.338 OA
ATOM     29  N   UNL     1      -4.354  -1.147  -0.563  0.00  0.00    -0.060 NA
BRANCH  27  30
ATOM     30  C   UNL     1      -2.354  -3.976   0.162  0.00  0.00    +0.078 C 
ATOM     31  C   UNL     1      -3.332  -5.099   0.514  0.00  0.00    +0.014 C 
ATOM     32  C   UNL     1      -2.523  -4.414   1.618  0.00  0.00    +0.014 C 
ENDBRANCH  27  30
ENDBRANCH  24  25
ENDBRANCH   3  24
TORSDOF 5
