REMARK  Name = m398
REMARK  8 active torsions:
REMARK  status: ('A' for Active; 'I' for Inactive)
REMARK    1  A    between atoms: C_1  and  C_2
REMARK    2  A    between atoms: C_7  and  N_8
REMARK    3  A    between atoms: C_9  and  C_11
REMARK    4  A    between atoms: N_15  and  S_16
REMARK    5  A    between atoms: S_16  and  C_19
REMARK    6  A    between atoms: C_21  and  C_22
REMARK    7  A    between atoms: C_25  and  C_26
REMARK    8  A    between atoms: C_32  and  C_33
REMARK                            x       y       z     vdW  Elec       q    Type
REMARK                         _______ _______ _______ _____ _____    ______ ____
ROOT
ATOM      1  S   UNL     1       0.003   2.359   1.099  0.00  0.00    +0.062 S 
ATOM      2  O   UNL     1      -0.001   3.763   1.315  0.00  0.00    -0.153 OA
ATOM      3  O   UNL     1       0.098   1.371   2.116  0.00  0.00    -0.153 OA
ENDROOT
BRANCH   1   6
ATOM      4  C   UNL     1       3.394   0.883   0.213  0.00  0.00    +0.091 C 
ATOM      5  C   UNL     1       1.884   0.735   0.002  0.00  0.00    +0.122 C 
ATOM      6  N   UNL     1       1.264   2.065   0.067  0.00  0.00    -0.176 NA
ATOM      7  C   UNL     1       1.785   3.131  -0.800  0.00  0.00    +0.109 C 
ATOM      8  C   UNL     1       3.296   3.252  -0.580  0.00  0.00    +0.018 C 
ATOM      9  C   UNL     1       3.951   1.886  -0.799  0.00  0.00    +0.015 C 
BRANCH   4  12
ATOM     10  N   UNL     1       5.399  -0.564   0.151  0.00  0.00    -0.270 N 
ATOM     11  H   UNL     1       5.931   0.216   0.374  0.00  0.00    +0.156 HD
ATOM     12  C   UNL     1       4.063  -0.454   0.017  0.00  0.00    +0.223 C 
ATOM     13  O   UNL     1       3.398  -1.429  -0.261  0.00  0.00    -0.275 OA
BRANCH  10  16
ATOM     14  C   UNL     1       8.227  -0.693   0.437  0.00  0.00    +0.047 C 
ATOM     15  C   UNL     1       7.398  -1.905   0.098  0.00  0.00    -0.010 A 
ATOM     16  C   UNL     1       6.018  -1.800  -0.030  0.00  0.00    +0.128 A 
ATOM     17  N   UNL     1       5.287  -2.861  -0.334  0.00  0.00    -0.240 NA
ATOM     18  C   UNL     1       5.832  -4.049  -0.513  0.00  0.00    +0.113 A 
ATOM     19  C   UNL     1       7.197  -4.227  -0.396  0.00  0.00    +0.020 A 
ATOM     20  C   UNL     1       7.999  -3.138  -0.085  0.00  0.00    +0.008 A 
ENDBRANCH  10  16
ENDBRANCH   4  12
ENDBRANCH   1   6
BRANCH   1  21
ATOM     21  C   UNL     1      -1.486   2.005   0.226  0.00  0.00    +0.116 A 
ATOM     22  C   UNL     1      -1.847   2.753  -0.849  0.00  0.00    +0.014 A 
ATOM     23  C   UNL     1      -1.132   3.923  -1.472  0.00  0.00    +0.053 C 
ATOM     24  S   UNL     1      -3.383   1.985  -1.339  0.00  0.00    -0.088 S 
ATOM     25  C   UNL     1      -3.450   0.725  -0.076  0.00  0.00    +0.062 A 
ATOM     26  C   UNL     1      -2.300   0.970   0.628  0.00  0.00    +0.048 A 
BRANCH  25  27
ATOM     27  C   UNL     1      -4.477  -0.312   0.151  0.00  0.00    +0.209 A 
ATOM     28  N   UNL     1      -5.601  -0.504  -0.579  0.00  0.00    -0.191 NA
ATOM     29  C   UNL     1      -6.209  -1.524  -0.027  0.00  0.00    +0.231 A 
ATOM     30  O   UNL     1      -5.460  -1.916   1.009  0.00  0.00    -0.337 OA
ATOM     31  N   UNL     1      -4.474  -1.216   1.100  0.00  0.00    -0.056 NA
BRANCH  29  32
ATOM     32  C   UNL     1      -7.511  -2.137  -0.472  0.00  0.00    +0.078 C 
ATOM     33  C   UNL     1      -8.407  -2.594   0.691  0.00  0.00    +0.013 C 
ATOM     34  C   UNL     1      -8.745  -3.831  -0.158  0.00  0.00    +0.001 C 
ATOM     35  C   UNL     1      -7.393  -3.620  -0.860  0.00  0.00    +0.013 C 
ENDBRANCH  29  32
ENDBRANCH  25  27
ENDBRANCH   1  21
TORSDOF 6
