REMARK  Name = m399
REMARK  6 active torsions:
REMARK  status: ('A' for Active; 'I' for Inactive)
REMARK    1  A    between atoms: C_1  and  C_2
REMARK    2  A    between atoms: C_2  and  N_3
REMARK    3  A    between atoms: C_6  and  C_7
REMARK    4  A    between atoms: C_10  and  C_11
REMARK    5  A    between atoms: N_13  and  C_14
REMARK    6  A    between atoms: N_21  and  C_22
REMARK                            x       y       z     vdW  Elec       q    Type
REMARK                         _______ _______ _______ _____ _____    ______ ____
ROOT
ATOM      1  N   UNL     1       2.790   2.439  -0.327  0.00  0.00    -0.258 N 
ATOM      2  C   UNL     1       3.519   1.309  -0.261  0.00  0.00    +0.353 A 
ATOM      3  O   UNL     1       4.731   1.377  -0.328  0.00  0.00    -0.244 OA
ATOM      4  N   UNL     1       2.932   0.109  -0.113  0.00  0.00    -0.181 N 
ATOM      5  N   UNL     1       1.539  -0.007  -0.033  0.00  0.00    -0.153 NA
ATOM      6  C   UNL     1       0.791   1.071  -0.099  0.00  0.00    +0.196 A 
ATOM      7  C   UNL     1       1.444   2.381  -0.255  0.00  0.00    +0.286 A 
ATOM      8  O   UNL     1       0.779   3.398  -0.319  0.00  0.00    -0.265 OA
ENDROOT
BRANCH   4   9
ATOM      9  C   UNL     1       3.724  -1.043  -0.043  0.00  0.00    +0.071 A 
ATOM     10  C   UNL     1       4.917  -1.024   0.669  0.00  0.00    +0.031 A 
ATOM     11  C   UNL     1       5.694  -2.163   0.742  0.00  0.00    +0.040 A 
ATOM     12  C   UNL     1       5.292  -3.320   0.096  0.00  0.00    +0.124 A 
ATOM     13  F   UNL     1       6.056  -4.431   0.164  0.00  0.00    -0.205 F 
ATOM     14  C   UNL     1       4.106  -3.339  -0.620  0.00  0.00    +0.040 A 
ATOM     15  C   UNL     1       3.322  -2.204  -0.690  0.00  0.00    +0.031 A 
ENDBRANCH   4   9
BRANCH   6  16
ATOM     16  C   UNL     1      -0.686   0.970  -0.017  0.00  0.00    +0.228 A 
ATOM     17  N   UNL     1      -1.403  -0.164   0.121  0.00  0.00    -0.182 NA
ATOM     18  C   UNL     1      -2.663   0.216   0.152  0.00  0.00    +0.314 A 
ATOM     19  O   UNL     1      -2.672   1.551   0.025  0.00  0.00    -0.328 OA
ATOM     20  N   UNL     1      -1.536   1.965  -0.070  0.00  0.00    -0.054 NA
BRANCH  18  21
ATOM     21  C   UNL     1      -3.847  -0.665   0.294  0.00  0.00    +0.302 C 
ATOM     22  N   UNL     1      -5.085  -0.134   0.305  0.00  0.00    -0.305 N 
ATOM     23  H   UNL     1      -5.202   0.825   0.219  0.00  0.00    +0.149 HD
ATOM     24  O   UNL     1      -3.701  -1.867   0.402  0.00  0.00    -0.265 OA
BRANCH  22  25
ATOM     25  C   UNL     1      -6.255  -1.004   0.445  0.00  0.00    +0.073 C 
ATOM     26  C   UNL     1      -6.715  -1.499  -0.942  0.00  0.00    +0.022 C 
ATOM     27  C   UNL     1      -8.261  -1.519  -0.844  0.00  0.00    +0.002 C 
ATOM     28  C   UNL     1      -8.566  -0.255  -0.002  0.00  0.00    +0.002 C 
ATOM     29  C   UNL     1      -7.432  -0.213   1.043  0.00  0.00    +0.022 C 
ENDBRANCH  22  25
ENDBRANCH  18  21
ENDBRANCH   6  16
BRANCH   1  31
ATOM     30  C   UNL     1       3.763   4.319   0.896  0.00  0.00    +0.027 C 
ATOM     31  C   UNL     1       3.459   3.732  -0.483  0.00  0.00    +0.127 C 
ENDBRANCH   1  31
TORSDOF 5
