REMARK  Name = m400
REMARK  9 active torsions:
REMARK  status: ('A' for Active; 'I' for Inactive)
REMARK    1  A    between atoms: C_1  and  C_2
REMARK    2  A    between atoms: C_2  and  O_3
REMARK    3  A    between atoms: O_3  and  C_4
REMARK    4  A    between atoms: C_4  and  C_6
REMARK    5  A    between atoms: N_9  and  C_10
REMARK    6  A    between atoms: N_21  and  C_22
REMARK    7  A    between atoms: C_22  and  C_23
REMARK    8  A    between atoms: N_25  and  C_26
REMARK    9  A    between atoms: N_25  and  C_27
REMARK                            x       y       z     vdW  Elec       q    Type
REMARK                         _______ _______ _______ _____ _____    ______ ____
ROOT
ATOM      1  C   UNL     1       0.682  -2.349  -0.435  0.00  0.00    +0.158 C 
ATOM      2  C   UNL     1      -0.473  -1.944  -1.063  0.00  0.00    +0.139 C 
ATOM      3  N   UNL     1      -1.665  -2.670  -0.848  0.00  0.00    -0.284 NA
ATOM      4  H   UNL     1      -1.816  -3.281  -1.636  0.00  0.00    +0.142 HD
ATOM      5  C   UNL     1      -2.671  -1.695  -0.884  0.00  0.00    +0.314 C 
ATOM      6  N   UNL     1      -2.171  -0.638  -1.574  0.00  0.00    -0.197 N 
ATOM      7  O   UNL     1      -3.776  -1.779  -0.391  0.00  0.00    -0.252 OA
ATOM      8  C   UNL     1      -1.778  -3.351   0.179  0.00  0.00    +0.051 A 
ATOM      9  C   UNL     1      -0.634  -3.709   0.911  0.00  0.00    +0.086 A 
ATOM     10  C   UNL     1      -0.762  -4.547   2.028  0.00  0.00    +0.029 A 
ATOM     11  C   UNL     1      -2.008  -4.988   2.415  0.00  0.00    +0.002 A 
ATOM     12  C   UNL     1      -3.134  -4.608   1.702  0.00  0.00    +0.002 A 
ATOM     13  C   UNL     1      -3.017  -3.794   0.588  0.00  0.00    +0.024 A 
ATOM     14  N   UNL     1      -0.850  -0.969  -1.956  0.00  0.00    -0.245 N 
ATOM     15  H   UNL     1      -0.328  -0.590  -2.680  0.00  0.00    +0.172 HD
ATOM     16  N   UNL     1       0.587  -3.261   0.541  0.00  0.00    -0.228 NA
ENDROOT
BRANCH   1  20
ATOM     17  C   UNL     1       4.354  -0.411  -0.508  0.00  0.00    +0.101 C 
ATOM     18  C   UNL     1       3.024   0.344  -0.566  0.00  0.00    +0.033 C 
ATOM     19  C   UNL     1       2.014  -0.472  -1.380  0.00  0.00    +0.107 C 
ATOM     20  N   UNL     1       1.919  -1.819  -0.802  0.00  0.00    -0.313 N 
ATOM     21  C   UNL     1       3.151  -2.597  -0.617  0.00  0.00    +0.107 C 
ATOM     22  C   UNL     1       4.148  -1.758   0.188  0.00  0.00    +0.033 C 
BRANCH  17  23
ATOM     23  C   UNL     1       5.360   0.404   0.263  0.00  0.00    +0.310 C 
ATOM     24  O   UNL     1       5.861  -0.047   1.266  0.00  0.00    -0.251 OA
BRANCH  23  25
ATOM     25  O   UNL     1       5.700   1.630  -0.164  0.00  0.00    -0.465 OA
BRANCH  25  27
ATOM     26  C   UNL     1       6.876   3.762  -0.117  0.00  0.00    +0.048 C 
ATOM     27  C   UNL     1       6.670   2.415   0.579  0.00  0.00    +0.229 C 
ENDBRANCH  25  27
ENDBRANCH  23  25
ENDBRANCH  17  23
ENDBRANCH   1  20
BRANCH   6  28
ATOM     28  C   UNL     1      -2.872   0.614  -1.871  0.00  0.00    +0.228 C 
BRANCH  28  29
ATOM     29  C   UNL     1      -2.623   1.603  -0.761  0.00  0.00    +0.239 C 
ATOM     30  N   UNL     1      -3.172   2.833  -0.819  0.00  0.00    -0.273 N 
ATOM     31  C   UNL     1      -4.080   3.178  -1.915  0.00  0.00    +0.138 C 
ATOM     32  O   UNL     1      -1.929   1.293   0.184  0.00  0.00    -0.273 OA
BRANCH  30  33
ATOM     33  C   UNL     1      -2.873   3.779   0.167  0.00  0.00    +0.036 A 
ATOM     34  C   UNL     1      -3.549   3.757   1.380  0.00  0.00    +0.023 A 
ATOM     35  C   UNL     1      -3.248   4.689   2.354  0.00  0.00    +0.002 A 
ATOM     36  C   UNL     1      -2.284   5.651   2.118  0.00  0.00    +0.000 A 
ATOM     37  C   UNL     1      -1.613   5.679   0.909  0.00  0.00    +0.002 A 
ATOM     38  C   UNL     1      -1.905   4.747  -0.067  0.00  0.00    +0.023 A 
ENDBRANCH  30  33
ENDBRANCH  28  29
ENDBRANCH   6  28
TORSDOF 7
