REMARK  Name = m401
REMARK  5 active torsions:
REMARK  status: ('A' for Active; 'I' for Inactive)
REMARK    1  A    between atoms: C_1  and  O_2
REMARK    2  A    between atoms: O_2  and  C_3
REMARK    3  A    between atoms: C_6  and  N_7
REMARK    4  A    between atoms: C_8  and  C_10
REMARK    5  A    between atoms: C_10  and  N_11
REMARK                            x       y       z     vdW  Elec       q    Type
REMARK                         _______ _______ _______ _____ _____    ______ ____
ROOT
ATOM      1  N   UNL     1      -0.761   0.497  -1.413  0.00  0.00    -0.203 N 
ATOM      2  C   UNL     1      -1.315   1.662  -1.018  0.00  0.00    +0.352 A 
ATOM      3  O   UNL     1      -0.863   2.776  -1.218  0.00  0.00    -0.244 OA
ATOM      4  N   UNL     1      -2.456   1.374  -0.367  0.00  0.00    -0.239 N 
ATOM      5  C   UNL     1      -2.610  -0.003  -0.350  0.00  0.00    +0.203 A 
ATOM      6  C   UNL     1      -3.791  -0.577   0.315  0.00  0.00    +0.167 A 
ATOM      7  N   UNL     1      -4.673   0.212   0.878  0.00  0.00    -0.227 NA
ATOM      8  C   UNL     1      -4.530   1.565   0.867  0.00  0.00    +0.090 A 
ATOM      9  C   UNL     1      -5.496   2.371   1.480  0.00  0.00    +0.030 A 
ATOM     10  C   UNL     1      -5.355   3.741   1.470  0.00  0.00    +0.002 A 
ATOM     11  C   UNL     1      -4.261   4.329   0.856  0.00  0.00    +0.002 A 
ATOM     12  C   UNL     1      -3.299   3.548   0.246  0.00  0.00    +0.028 A 
ATOM     13  N   UNL     1      -3.968  -1.946   0.347  0.00  0.00    -0.308 N 
ATOM     14  C   UNL     1      -2.997  -2.858  -0.282  0.00  0.00    +0.134 C 
ATOM     15  C   UNL     1      -3.767  -3.882  -1.115  0.00  0.00    +0.178 C 
ATOM     16  O   UNL     1      -4.724  -4.548  -0.293  0.00  0.00    -0.377 OA
ATOM     17  C   UNL     1      -5.730  -3.600   0.058  0.00  0.00    +0.178 C 
ATOM     18  C   UNL     1      -5.139  -2.550   1.005  0.00  0.00    +0.134 C 
ATOM     19  C   UNL     1      -3.425   2.166   0.247  0.00  0.00    +0.078 A 
ATOM     20  N   UNL     1      -1.598  -0.539  -0.976  0.00  0.00    -0.145 NA
ENDROOT
BRANCH   1  21
ATOM     21  C   UNL     1       0.490   0.342  -2.159  0.00  0.00    +0.244 C 
BRANCH  21  24
ATOM     22  N   UNL     1       2.897   0.072  -1.654  0.00  0.00    -0.284 N 
ATOM     23  H   UNL     1       3.072   0.119  -2.607  0.00  0.00    +0.155 HD
ATOM     24  C   UNL     1       1.640   0.223  -1.192  0.00  0.00    +0.239 C 
ATOM     25  O   UNL     1       1.434   0.264   0.003  0.00  0.00    -0.273 OA
BRANCH  22  30
ATOM     26  C   UNL     1       6.032  -0.600   1.013  0.00  0.00    +0.138 A 
ATOM     27  C   UNL     1       6.252   0.131  -0.146  0.00  0.00    +0.084 A 
ATOM     28 CL   UNL     1       7.833   0.760  -0.488  0.00  0.00    -0.080 Cl
ATOM     29  C   UNL     1       5.215   0.350  -1.032  0.00  0.00    +0.047 A 
ATOM     30  C   UNL     1       3.950  -0.154  -0.758  0.00  0.00    +0.035 A 
ATOM     31  C   UNL     1       3.730  -0.881   0.404  0.00  0.00    +0.027 A 
ATOM     32  C   UNL     1       4.769  -1.103   1.287  0.00  0.00    +0.049 A 
BRANCH  26  34
ATOM     33  C   UNL     1       6.519  -1.586   2.964  0.00  0.00    +0.277 C 
ATOM     34  O   UNL     1       7.054  -0.820   1.883  0.00  0.00    -0.494 OA
ENDBRANCH  26  34
ENDBRANCH  22  30
ENDBRANCH  21  24
ENDBRANCH   1  21
TORSDOF 4
