REMARK  Name = m402
REMARK  8 active torsions:
REMARK  status: ('A' for Active; 'I' for Inactive)
REMARK    1  A    between atoms: C_1  and  O_2
REMARK    2  A    between atoms: O_2  and  C_3
REMARK    3  A    between atoms: C_3  and  C_4
REMARK    4  A    between atoms: C_4  and  N_5
REMARK    5  A    between atoms: C_6  and  C_8
REMARK    6  A    between atoms: C_16  and  C_17
REMARK    7  A    between atoms: C_20  and  C_22
REMARK    8  A    between atoms: C_22  and  N_23
REMARK                            x       y       z     vdW  Elec       q    Type
REMARK                         _______ _______ _______ _____ _____    ______ ____
ROOT
ATOM      1  C   UNL     1       2.500   0.454  -0.035  0.00  0.00    +0.082 A 
ATOM      2  C   UNL     1       1.412   1.190   0.316  0.00  0.00    +0.011 A 
ATOM      3  C   UNL     1       1.456   2.592   0.219  0.00  0.00    +0.014 A 
ATOM      4  C   UNL     1       2.672   3.134  -0.264  0.00  0.00    +0.109 A 
ATOM      5  N   UNL     1       2.861   4.425  -0.414  0.00  0.00    -0.248 NA
ATOM      6  C   UNL     1       1.915   5.295  -0.117  0.00  0.00    +0.112 A 
ATOM      7  C   UNL     1       0.688   4.861   0.364  0.00  0.00    +0.020 A 
ATOM      8  C   UNL     1       0.440   3.531   0.538  0.00  0.00    +0.012 A 
ATOM      9  S   UNL     1       3.675   1.695  -0.546  0.00  0.00    -0.064 S 
ENDROOT
BRANCH   2  10
ATOM     10  C   UNL     1       0.166   0.506   0.814  0.00  0.00    +0.167 C 
ATOM     11  O   UNL     1       0.522  -0.503   1.758  0.00  0.00    -0.369 OA
ATOM     12  C   UNL     1      -0.681  -0.983   2.357  0.00  0.00    +0.179 C 
ATOM     13  C   UNL     1      -1.497  -1.760   1.318  0.00  0.00    +0.136 C 
ATOM     14  N   UNL     1      -1.728  -0.877   0.162  0.00  0.00    -0.295 N 
ATOM     15  C   UNL     1      -2.952  -0.754  -0.391  0.00  0.00    +0.230 C 
ATOM     16  O   UNL     1      -3.116  -0.021  -1.343  0.00  0.00    -0.274 OA
ATOM     17  C   UNL     1      -0.572  -0.134  -0.367  0.00  0.00    +0.144 C 
BRANCH  15  18
ATOM     18  C   UNL     1      -4.115  -1.528   0.174  0.00  0.00    +0.180 C 
BRANCH  18  19
ATOM     19  N   UNL     1      -5.352  -1.114  -0.501  0.00  0.00    -0.294 NA
ATOM     20  C   UNL     1      -6.434  -1.925   0.068  0.00  0.00    +0.085 C 
ATOM     21  C   UNL     1      -7.765  -1.543  -0.584  0.00  0.00    +0.015 C 
ATOM     22  C   UNL     1      -8.064  -0.069  -0.293  0.00  0.00    +0.002 C 
ATOM     23  C   UNL     1      -6.883   0.781  -0.773  0.00  0.00    +0.015 C 
ATOM     24  C   UNL     1      -5.599   0.279  -0.111  0.00  0.00    +0.085 C 
ENDBRANCH  18  19
ENDBRANCH  15  18
ENDBRANCH   2  10
BRANCH   1  27
ATOM     25  N   UNL     1       3.827  -1.561  -0.402  0.00  0.00    -0.309 N 
ATOM     26  H   UNL     1       4.555  -0.997  -0.706  0.00  0.00    +0.149 HD
ATOM     27  C   UNL     1       2.664  -1.006  -0.006  0.00  0.00    +0.251 C 
ATOM     28  O   UNL     1       1.751  -1.714   0.375  0.00  0.00    -0.270 OA
BRANCH  25  29
ATOM     29  C   UNL     1       3.992  -3.017  -0.373  0.00  0.00    +0.132 C 
BRANCH  29  30
ATOM     30  C   UNL     1       5.393  -3.381  -0.869  0.00  0.00    +0.178 C 
BRANCH  30  32
ATOM     31  C   UNL     1       7.648  -3.244  -0.471  0.00  0.00    +0.194 C 
ATOM     32  O   UNL     1       6.368  -2.873   0.044  0.00  0.00    -0.381 OA
ENDBRANCH  30  32
ENDBRANCH  29  30
ENDBRANCH  25  29
ENDBRANCH   1  27
TORSDOF 7
