REMARK  Name = m403
REMARK  4 active torsions:
REMARK  status: ('A' for Active; 'I' for Inactive)
REMARK    1  A    between atoms: C_1  and  C_2
REMARK    2  A    between atoms: C_2  and  C_3
REMARK    3  A    between atoms: N_5  and  C_6
REMARK    4  A    between atoms: C_13  and  C_15
REMARK                            x       y       z     vdW  Elec       q    Type
REMARK                         _______ _______ _______ _____ _____    ______ ____
ROOT
ATOM      1  C   UNL     1      -5.426   1.257  -0.357  0.00  0.00    +0.075 A 
ATOM      2  C   UNL     1      -4.795   0.007  -0.178  0.00  0.00    +0.083 A 
ATOM      3  C   UNL     1      -5.801  -0.957  -0.117  0.00  0.00    +0.156 A 
ATOM      4  N   UNL     1      -5.193  -2.162   0.061  0.00  0.00    -0.259 N 
ATOM      5  N   UNL     1      -3.808  -1.977   0.120  0.00  0.00    -0.156 NA
ATOM      6  H   UNL     1      -5.648  -3.015   0.136  0.00  0.00    +0.191 HD
ATOM      7  N   UNL     1      -6.986  -0.299  -0.264  0.00  0.00    -0.250 N 
ATOM      8  C   UNL     1      -8.315  -0.915  -0.269  0.00  0.00    +0.174 C 
ATOM      9  C   UNL     1      -3.529  -0.706  -0.014  0.00  0.00    +0.158 A 
ATOM     10  N   UNL     1      -2.253  -0.134  -0.008  0.00  0.00    -0.264 N 
ATOM     11  H   UNL     1      -2.151   0.825  -0.116  0.00  0.00    +0.157 HD
ATOM     12  C   UNL     1      -1.166  -0.914   0.147  0.00  0.00    +0.249 C 
ATOM     13  O   UNL     1      -1.294  -2.116   0.282  0.00  0.00    -0.270 OA
ATOM     14  N   UNL     1      -6.714   1.067  -0.410  0.00  0.00    -0.174 NA
ENDROOT
BRANCH  12  15
ATOM     15  C   UNL     1       0.185  -0.309   0.154  0.00  0.00    +0.039 A 
ATOM     16  C   UNL     1       1.302  -1.118   0.320  0.00  0.00    +0.041 A 
ATOM     17  C   UNL     1       2.574  -0.541   0.318  0.00  0.00    +0.079 A 
ATOM     18  C   UNL     1       2.699   0.857   0.159  0.00  0.00    +0.065 A 
ATOM     19  C   UNL     1       4.055   1.431   0.166  0.00  0.00    +0.262 A 
ATOM     20  N   UNL     1       5.090   0.578   0.313  0.00  0.00    -0.296 N 
ATOM     21  C   UNL     1       6.471   1.076   0.318  0.00  0.00    +0.126 C 
ATOM     22  C   UNL     1       7.136   0.722  -1.010  0.00  0.00    +0.022 C 
ATOM     23  C   UNL     1       7.803  -0.641  -0.942  0.00  0.00    +0.002 C 
ATOM     24  C   UNL     1       6.796  -1.763  -0.753  0.00  0.00    +0.008 C 
ATOM     25  C   UNL     1       6.097  -1.655   0.600  0.00  0.00    +0.074 C 
ATOM     26  C   UNL     1       4.882  -0.765   0.458  0.00  0.00    +0.113 A 
ATOM     27  O   UNL     1       4.236   2.628   0.045  0.00  0.00    -0.267 OA
ATOM     28  C   UNL     1       1.565   1.651   0.001  0.00  0.00    +0.016 A 
ATOM     29  N   UNL     1       3.694  -1.291   0.468  0.00  0.00    -0.233 NA
ATOM     30  C   UNL     1       0.327   1.075  -0.003  0.00  0.00    +0.014 A 
ENDBRANCH  12  15
BRANCH   1  32
ATOM     31  C   UNL     1      -4.572   3.207   0.916  0.00  0.00    +0.010 C 
ATOM     32  C   UNL     1      -4.726   2.587  -0.475  0.00  0.00    +0.055 C 
ENDBRANCH   1  32
TORSDOF 2
