REMARK  Name = m404
REMARK  8 active torsions:
REMARK  status: ('A' for Active; 'I' for Inactive)
REMARK    1  A    between atoms: C_1  and  C_2
REMARK    2  A    between atoms: N_6  and  S_7
REMARK    3  A    between atoms: S_7  and  C_10
REMARK    4  A    between atoms: C_12  and  C_13
REMARK    5  A    between atoms: N_18  and  C_19
REMARK    6  A    between atoms: C_20  and  C_21
REMARK    7  A    between atoms: C_24  and  C_25
REMARK    8  A    between atoms: C_29  and  C_30
REMARK                            x       y       z     vdW  Elec       q    Type
REMARK                         _______ _______ _______ _____ _____    ______ ____
ROOT
ATOM      1  C   UNL     1       2.252  -1.542  -0.194  0.00  0.00    +0.112 A 
ATOM      2  C   UNL     1       2.825  -2.240   0.853  0.00  0.00    -0.024 A 
ATOM      3  C   UNL     1       4.325  -2.355   0.947  0.00  0.00    +0.046 C 
ATOM      4  C   UNL     1       2.028  -2.824   1.821  0.00  0.00    +0.006 A 
ATOM      5  C   UNL     1       0.654  -2.722   1.740  0.00  0.00    +0.010 A 
ATOM      6  C   UNL     1       0.070  -2.025   0.684  0.00  0.00    +0.004 A 
ATOM      7  C   UNL     1       0.879  -1.434  -0.285  0.00  0.00    +0.039 A 
ENDROOT
BRANCH   6   8
ATOM      8  C   UNL     1      -1.406  -1.913   0.591  0.00  0.00    +0.092 A 
ATOM      9  N   UNL     1      -1.954  -0.781   0.212  0.00  0.00    -0.163 NA
ATOM     10  N   UNL     1      -3.225  -0.635   0.110  0.00  0.00    -0.191 N 
ATOM     11  C   UNL     1      -4.079  -1.635   0.400  0.00  0.00    +0.272 A 
ATOM     12  O   UNL     1      -5.284  -1.463   0.299  0.00  0.00    -0.266 OA
ATOM     13  C   UNL     1      -3.572  -2.882   0.821  0.00  0.00    +0.074 A 
ATOM     14  C   UNL     1      -2.218  -3.023   0.918  0.00  0.00    +0.035 A 
BRANCH  10  15
ATOM     15  C   UNL     1      -3.739   0.601  -0.307  0.00  0.00    +0.133 A 
ATOM     16  C   UNL     1      -4.002   1.016  -1.576  0.00  0.00    +0.160 A 
ATOM     17  C   UNL     1      -3.804   0.226  -2.844  0.00  0.00    +0.091 C 
ATOM     18  O   UNL     1      -4.480   2.264  -1.474  0.00  0.00    -0.357 OA
ATOM     19  N   UNL     1      -4.524   2.633  -0.323  0.00  0.00    -0.081 NA
ATOM     20  C   UNL     1      -4.099   1.715   0.495  0.00  0.00    +0.106 A 
ATOM     21  C   UNL     1      -4.009   1.815   1.996  0.00  0.00    +0.071 C 
ENDBRANCH  10  15
ENDBRANCH   6   8
BRANCH   1  22
ATOM     22  S   UNL     1       3.276  -0.796  -1.419  0.00  0.00    +0.074 S 
ATOM     23  O   UNL     1       4.210  -1.795  -1.802  0.00  0.00    -0.150 OA
ATOM     24  O   UNL     1       2.391  -0.116  -2.299  0.00  0.00    -0.150 OA
BRANCH  22  30
ATOM     25  C   UNL     1       1.485   4.767   1.612  0.00  0.00    +0.045 C 
ATOM     26  C   UNL     1       2.236   3.605   1.014  0.00  0.00    -0.032 A 
ATOM     27  C   UNL     1       1.564   2.638   0.294  0.00  0.00    +0.116 A 
ATOM     28  N   UNL     1       2.212   1.619  -0.239  0.00  0.00    -0.239 NA
ATOM     29  C   UNL     1       3.521   1.477  -0.097  0.00  0.00    +0.138 A 
ATOM     30  N   UNL     1       4.162   0.386  -0.670  0.00  0.00    -0.199 N 
ATOM     31  H   UNL     1       5.129   0.316  -0.632  0.00  0.00    +0.175 HD
ATOM     32  C   UNL     1       4.260   2.412   0.622  0.00  0.00    +0.045 A 
ATOM     33  C   UNL     1       3.609   3.493   1.187  0.00  0.00    +0.008 A 
ENDBRANCH  22  30
ENDBRANCH   1  22
TORSDOF 4
