REMARK  Name = m405
REMARK  11 active torsions:
REMARK  status: ('A' for Active; 'I' for Inactive)
REMARK    1  A    between atoms: C_1  and  C_2
REMARK    2  A    between atoms: C_2  and  O_3
REMARK    3  A    between atoms: O_3  and  C_4
REMARK    4  A    between atoms: C_9  and  C_10
REMARK    5  A    between atoms: C_13  and  C_14
REMARK    6  A    between atoms: N_17  and  C_18
REMARK    7  A    between atoms: C_18  and  C_19
REMARK    8  A    between atoms: C_21  and  C_22
REMARK    9  A    between atoms: C_25  and  C_26
REMARK   10  A    between atoms: C_30  and  C_31
REMARK   11  A    between atoms: C_32  and  C_33
REMARK                            x       y       z     vdW  Elec       q    Type
REMARK                         _______ _______ _______ _____ _____    ______ ____
ROOT
ATOM      1  C   UNL     1       0.775  -1.771  -0.435  0.00  0.00    +0.172 A 
ATOM      2  C   UNL     1      -0.328  -1.509  -1.202  0.00  0.00    +0.069 A 
ATOM      3  C   UNL     1      -0.517  -0.354  -2.153  0.00  0.00    +0.068 C 
ATOM      4  N   UNL     1      -1.207  -2.498  -0.941  0.00  0.00    -0.242 N 
ATOM      5  N   UNL     1      -0.684  -3.295  -0.077  0.00  0.00    -0.064 NA
ATOM      6  N   UNL     1       0.495  -2.897   0.250  0.00  0.00    -0.124 NA
ENDROOT
BRANCH   1   9
ATOM      7  C   UNL     1       3.955  -0.244   0.115  0.00  0.00    +0.206 A 
ATOM      8  N   UNL     1       3.078  -1.236   0.377  0.00  0.00    -0.186 NA
ATOM      9  C   UNL     1       2.018  -0.976  -0.366  0.00  0.00    +0.281 A 
ATOM     10  O   UNL     1       2.290   0.145  -1.052  0.00  0.00    -0.331 OA
ATOM     11  N   UNL     1       3.397   0.548  -0.765  0.00  0.00    -0.055 NA
BRANCH   7  13
ATOM     12  C   UNL     1       6.117   0.988   0.330  0.00  0.00    +0.131 A 
ATOM     13  C   UNL     1       5.305  -0.085   0.709  0.00  0.00    +0.064 A 
ATOM     14  C   UNL     1       5.774  -1.010   1.639  0.00  0.00    +0.015 A 
ATOM     15  C   UNL     1       7.029  -0.857   2.189  0.00  0.00    +0.001 A 
ATOM     16  C   UNL     1       7.829   0.210   1.817  0.00  0.00    +0.004 A 
ATOM     17  C   UNL     1       7.377   1.130   0.891  0.00  0.00    +0.046 A 
BRANCH  12  18
ATOM     18  O   UNL     1       5.670   1.892  -0.580  0.00  0.00    -0.492 OA
BRANCH  18  20
ATOM     19  C   UNL     1       6.271   3.910  -1.768  0.00  0.00    +0.048 C 
ATOM     20  C   UNL     1       6.711   2.857  -0.749  0.00  0.00    +0.226 C 
ENDBRANCH  18  20
ENDBRANCH  12  18
ENDBRANCH   7  13
ENDBRANCH   1   9
BRANCH   4  21
ATOM     21  C   UNL     1      -2.537  -2.638  -1.538  0.00  0.00    +0.204 C 
BRANCH  21  22
ATOM     22  C   UNL     1      -3.548  -1.909  -0.690  0.00  0.00    +0.104 A 
ATOM     23  C   UNL     1      -4.248  -2.432   0.333  0.00  0.00    +0.128 A 
ATOM     24  C   UNL     1      -4.162  -3.847   0.844  0.00  0.00    +0.088 C 
ATOM     25  O   UNL     1      -5.034  -1.452   0.822  0.00  0.00    -0.440 OA
ATOM     26  C   UNL     1      -4.813  -0.347   0.089  0.00  0.00    +0.228 A 
ATOM     27  N   UNL     1      -3.913  -0.626  -0.825  0.00  0.00    -0.212 NA
BRANCH  26  28
ATOM     28  C   UNL     1      -5.472   0.962   0.280  0.00  0.00    +0.037 A 
ATOM     29  C   UNL     1      -5.149   2.038  -0.548  0.00  0.00    +0.013 A 
ATOM     30  C   UNL     1      -5.772   3.255  -0.368  0.00  0.00    +0.004 A 
ATOM     31  C   UNL     1      -6.707   3.414   0.639  0.00  0.00    -0.050 A 
ATOM     32  C   UNL     1      -7.379   4.749   0.835  0.00  0.00    +0.044 C 
ATOM     33  C   UNL     1      -7.028   2.354   1.468  0.00  0.00    +0.004 A 
ATOM     34  C   UNL     1      -6.417   1.129   1.294  0.00  0.00    +0.013 A 
ENDBRANCH  26  28
ENDBRANCH  21  22
ENDBRANCH   4  21
TORSDOF 7
