REMARK  Name = m406
REMARK  13 active torsions:
REMARK  status: ('A' for Active; 'I' for Inactive)
REMARK    1  A    between atoms: C_1  and  C_2
REMARK    2  A    between atoms: C_2  and  C_3
REMARK    3  A    between atoms: C_3  and  C_4
REMARK    4  A    between atoms: C_3  and  N_5
REMARK    5  A    between atoms: C_6  and  C_8
REMARK    6  A    between atoms: C_8  and  N_9
REMARK    7  A    between atoms: N_12  and  C_13
REMARK    8  A    between atoms: C_13  and  C_14
REMARK    9  A    between atoms: C_17  and  C_18
REMARK   10  A    between atoms: C_31  and  O_32
REMARK   11  A    between atoms: O_32  and  C_33
REMARK   12  A    between atoms: C_34  and  O_35
REMARK   13  A    between atoms: O_35  and  C_36
REMARK                            x       y       z     vdW  Elec       q    Type
REMARK                         _______ _______ _______ _____ _____    ______ ____
ROOT
ATOM      1  N   UNL     1      -1.530   0.365  -0.099  0.00  0.00    -0.284 N 
ATOM      2  C   UNL     1      -1.985  -0.913   0.199  0.00  0.00    +0.063 A 
ATOM      3  C   UNL     1      -1.407  -2.009  -0.468  0.00  0.00    +0.067 A 
ATOM      4  C   UNL     1      -1.845  -3.306  -0.196  0.00  0.00    +0.064 A 
ATOM      5  C   UNL     1      -2.852  -3.504   0.727  0.00  0.00    +0.162 A 
ATOM      6  C   UNL     1      -3.429  -2.414   1.384  0.00  0.00    +0.163 A 
ATOM      7  C   UNL     1      -0.337  -1.745  -1.443  0.00  0.00    +0.265 A 
ATOM      8  O   UNL     1       0.199  -2.658  -2.043  0.00  0.00    -0.267 OA
ATOM      9  N   UNL     1       0.036  -0.465  -1.656  0.00  0.00    -0.256 N 
ATOM     10  C   UNL     1      -2.998  -1.125   1.119  0.00  0.00    +0.076 A 
ATOM     11  C   UNL     1      -0.549   0.550  -0.999  0.00  0.00    +0.333 A 
ATOM     12  O   UNL     1      -0.175   1.684  -1.228  0.00  0.00    -0.246 OA
ENDROOT
BRANCH   6  13
ATOM     13  O   UNL     1      -4.419  -2.621   2.291  0.00  0.00    -0.491 OA
ATOM     14  C   UNL     1      -4.800  -1.336   2.786  0.00  0.00    +0.277 C 
ENDBRANCH   6  13
BRANCH   5  15
ATOM     15  O   UNL     1      -3.285  -4.765   0.997  0.00  0.00    -0.491 OA
ATOM     16  C   UNL     1      -2.515  -5.650   0.181  0.00  0.00    +0.277 C 
ENDBRANCH   5  15
BRANCH   1  17
ATOM     17  C   UNL     1      -2.120   1.522   0.579  0.00  0.00    +0.222 C 
BRANCH  17  20
ATOM     18  N   UNL     1      -3.994   3.094   0.212  0.00  0.00    -0.311 N 
ATOM     19  H   UNL     1      -3.745   3.535   1.040  0.00  0.00    +0.149 HD
ATOM     20  C   UNL     1      -3.292   2.029  -0.222  0.00  0.00    +0.233 C 
ATOM     21  O   UNL     1      -3.603   1.478  -1.257  0.00  0.00    -0.274 OA
BRANCH  18  22
ATOM     22  C   UNL     1      -5.133   3.587  -0.566  0.00  0.00    +0.070 C 
ATOM     23  C   UNL     1      -4.634   4.543  -1.651  0.00  0.00    +0.028 C 
BRANCH  22  25
ATOM     24  C   UNL     1      -6.696   3.342   1.367  0.00  0.00    +0.005 C 
ATOM     25  C   UNL     1      -6.101   4.327   0.359  0.00  0.00    +0.018 C 
ENDBRANCH  22  25
ENDBRANCH  18  22
ENDBRANCH  17  20
ENDBRANCH   1  17
BRANCH   9  26
ATOM     26  C   UNL     1       1.099  -0.177  -2.621  0.00  0.00    +0.165 C 
BRANCH  26  27
ATOM     27  C   UNL     1       2.432  -0.189  -1.919  0.00  0.00    -0.027 A 
ATOM     28  C   UNL     1       2.934   0.980  -1.374  0.00  0.00    +0.006 A 
ATOM     29  C   UNL     1       4.151   0.974  -0.724  0.00  0.00    +0.013 A 
ATOM     30  C   UNL     1       4.882  -0.211  -0.627  0.00  0.00    +0.037 A 
ATOM     31  C   UNL     1       4.372  -1.385  -1.184  0.00  0.00    +0.013 A 
ATOM     32  C   UNL     1       3.151  -1.367  -1.826  0.00  0.00    +0.006 A 
BRANCH  30  33
ATOM     33  C   UNL     1       6.190  -0.223   0.062  0.00  0.00    +0.247 C 
ATOM     34  N   UNL     1       6.504   0.761   0.928  0.00  0.00    -0.298 N 
ATOM     35  C   UNL     1       5.598   1.834   1.375  0.00  0.00    +0.108 C 
ATOM     36  C   UNL     1       6.165   2.283   2.747  0.00  0.00    +0.020 C 
ATOM     37  C   UNL     1       7.694   2.178   2.499  0.00  0.00    +0.020 C 
ATOM     38  C   UNL     1       7.810   0.945   1.578  0.00  0.00    +0.108 C 
ATOM     39  O   UNL     1       6.982  -1.120  -0.153  0.00  0.00    -0.270 OA
ENDBRANCH  30  33
ENDBRANCH  26  27
ENDBRANCH   9  26
TORSDOF 9
