REMARK  Name = m407
REMARK  6 active torsions:
REMARK  status: ('A' for Active; 'I' for Inactive)
REMARK    1  A    between atoms: C_1  and  C_2
REMARK    2  A    between atoms: N_8  and  C_9
REMARK    3  A    between atoms: C_9  and  C_10
REMARK    4  A    between atoms: C_21  and  C_22
REMARK    5  A    between atoms: N_24  and  C_25
REMARK    6  A    between atoms: C_28  and  N_29
REMARK                            x       y       z     vdW  Elec       q    Type
REMARK                         _______ _______ _______ _____ _____    ______ ____
ROOT
ATOM      1  C   UNL     1       6.824   3.628   0.244  0.00  0.00    +0.044 C 
ATOM      2  C   UNL     1       5.468   2.979   0.146  0.00  0.00    -0.048 A 
ATOM      3  C   UNL     1       5.335   1.757  -0.478  0.00  0.00    +0.031 A 
ATOM      4  C   UNL     1       4.085   1.152  -0.565  0.00  0.00    +0.071 A 
ATOM      5  N   UNL     1       3.961  -0.085  -1.191  0.00  0.00    -0.299 N 
ATOM      6  C   UNL     1       2.754  -0.680  -1.287  0.00  0.00    +0.297 A 
ATOM      7  C   UNL     1       1.569  -0.008  -0.723  0.00  0.00    +0.222 A 
ATOM      8  N   UNL     1       1.708   1.203  -0.113  0.00  0.00    -0.206 N 
ATOM      9  N   UNL     1       0.544   1.580   0.292  0.00  0.00    -0.139 NA
ATOM     10  C   UNL     1      -0.342   0.657  -0.033  0.00  0.00    +0.238 A 
ATOM     11  N   UNL     1       0.295  -0.336  -0.666  0.00  0.00    -0.198 NA
ATOM     12  O   UNL     1       2.644  -1.762  -1.833  0.00  0.00    -0.264 OA
ATOM     13  C   UNL     1       2.968   1.793  -0.029  0.00  0.00    +0.091 A 
ATOM     14  C   UNL     1       3.113   3.029   0.592  0.00  0.00    +0.030 A 
ATOM     15  C   UNL     1       4.358   3.616   0.678  0.00  0.00    +0.005 A 
ENDROOT
BRANCH  10  16
ATOM     16  C   UNL     1      -1.792   0.710   0.256  0.00  0.00    +0.287 C 
ATOM     17  N   UNL     1      -2.593  -0.303  -0.131  0.00  0.00    -0.279 N 
ATOM     18  H   UNL     1      -2.209  -1.102  -0.525  0.00  0.00    +0.155 HD
ATOM     19  O   UNL     1      -2.261   1.666   0.841  0.00  0.00    -0.266 OA
BRANCH  17  20
ATOM     20  C   UNL     1      -3.980  -0.202   0.037  0.00  0.00    +0.034 A 
ATOM     21  C   UNL     1      -4.719  -1.320   0.400  0.00  0.00    +0.025 A 
ATOM     22  C   UNL     1      -6.085  -1.220   0.571  0.00  0.00    +0.025 A 
ATOM     23  C   UNL     1      -6.723  -0.002   0.368  0.00  0.00    +0.030 A 
ATOM     24  C   UNL     1      -5.984   1.115  -0.000  0.00  0.00    +0.025 A 
ATOM     25  C   UNL     1      -4.617   1.015  -0.165  0.00  0.00    +0.025 A 
BRANCH  23  26
ATOM     26  N   UNL     1      -8.108   0.099   0.535  0.00  0.00    -0.326 N 
ATOM     27  C   UNL     1      -8.673   0.383  -0.791  0.00  0.00    +0.133 C 
ATOM     28  C   UNL     1     -10.200   0.335  -0.717  0.00  0.00    +0.178 C 
ATOM     29  O   UNL     1     -10.624  -0.979  -0.356  0.00  0.00    -0.377 OA
ATOM     30  C   UNL     1     -10.114  -1.243   0.951  0.00  0.00    +0.178 C 
ATOM     31  C   UNL     1      -8.585  -1.236   0.919  0.00  0.00    +0.133 C 
ENDBRANCH  23  26
ENDBRANCH  17  20
ENDBRANCH  10  16
BRANCH   5  32
ATOM     32  C   UNL     1       5.145  -0.744  -1.748  0.00  0.00    +0.160 C 
BRANCH  32  33
ATOM     33  C   UNL     1       5.773  -1.621  -0.695  0.00  0.00    -0.025 A 
ATOM     34  C   UNL     1       6.744  -1.107   0.142  0.00  0.00    +0.043 A 
ATOM     35  C   UNL     1       7.317  -1.912   1.113  0.00  0.00    +0.124 A 
ATOM     36  F   UNL     1       8.263  -1.409   1.936  0.00  0.00    -0.205 F 
ATOM     37  C   UNL     1       6.924  -3.233   1.235  0.00  0.00    +0.038 A 
ATOM     38  C   UNL     1       5.957  -3.747   0.392  0.00  0.00    +0.003 A 
ATOM     39  C   UNL     1       5.381  -2.942  -0.572  0.00  0.00    +0.005 A 
ENDBRANCH  32  33
ENDBRANCH   5  32
TORSDOF 5
