REMARK  Name = m408
REMARK  8 active torsions:
REMARK  status: ('A' for Active; 'I' for Inactive)
REMARK    1  A    between atoms: C_1  and  C_2
REMARK    2  A    between atoms: C_2  and  O_3
REMARK    3  A    between atoms: O_3  and  C_4
REMARK    4  A    between atoms: C_9  and  C_10
REMARK    5  A    between atoms: C_16  and  C_17
REMARK    6  A    between atoms: N_20  and  C_21
REMARK    7  A    between atoms: N_20  and  C_22
REMARK    8  A    between atoms: C_25  and  C_26
REMARK                            x       y       z     vdW  Elec       q    Type
REMARK                         _______ _______ _______ _____ _____    ______ ____
ROOT
ATOM      1  C   UNL     1       2.136   0.863  -0.794  0.00  0.00    +0.250 C 
ATOM      2  N   UNL     1       1.048   1.258  -0.105  0.00  0.00    -0.292 N 
ATOM      3  C   UNL     1      -0.312   0.939  -0.574  0.00  0.00    +0.146 C 
ATOM      4  C   UNL     1      -1.109   0.394   0.621  0.00  0.00    +0.185 C 
ATOM      5  O   UNL     1      -1.085   1.346   1.684  0.00  0.00    -0.367 OA
ATOM      6  C   UNL     1       0.248   1.399   2.190  0.00  0.00    +0.179 C 
ATOM      7  C   UNL     1       1.171   2.031   1.143  0.00  0.00    +0.136 C 
ATOM      8  O   UNL     1       2.013   0.137  -1.762  0.00  0.00    -0.270 OA
ENDROOT
BRANCH   4   9
ATOM      9  C   UNL     1      -2.535   0.147   0.201  0.00  0.00    +0.084 A 
ATOM     10  C   UNL     1      -2.992  -1.154  -0.023  0.00  0.00    +0.027 A 
ATOM     11  C   UNL     1      -4.324  -1.332  -0.407  0.00  0.00    +0.125 A 
ATOM     12  N   UNL     1      -5.096  -0.270  -0.553  0.00  0.00    -0.222 NA
ATOM     13  C   UNL     1      -4.624   0.949  -0.337  0.00  0.00    +0.218 A 
ATOM     14  N   UNL     1      -5.466   2.035  -0.501  0.00  0.00    -0.306 N 
ATOM     15  C   UNL     1      -6.857   1.828  -0.910  0.00  0.00    +0.132 C 
ATOM     16  C   UNL     1      -4.965   3.392  -0.268  0.00  0.00    +0.132 C 
ATOM     17  N   UNL     1      -3.369   1.158   0.033  0.00  0.00    -0.216 NA
BRANCH  10  18
ATOM     18  C   UNL     1      -2.090  -2.319   0.153  0.00  0.00    +0.022 A 
ATOM     19  C   UNL     1      -0.833  -2.352  -0.457  0.00  0.00    +0.122 A 
ATOM     20  N   UNL     1      -0.059  -3.407  -0.270  0.00  0.00    -0.243 NA
ATOM     21  C   UNL     1      -0.461  -4.421   0.470  0.00  0.00    +0.221 A 
ATOM     22  N   UNL     1      -1.641  -4.432   1.060  0.00  0.00    -0.243 NA
ATOM     23  C   UNL     1      -2.475  -3.415   0.929  0.00  0.00    +0.122 A 
ENDBRANCH  10  18
ENDBRANCH   4   9
BRANCH   1  25
ATOM     24  C   UNL     1       4.528   0.389  -0.268  0.00  0.00    +0.133 A 
ATOM     25  C   UNL     1       3.478   1.311  -0.374  0.00  0.00    +0.078 A 
ATOM     26  C   UNL     1       3.707   2.655  -0.070  0.00  0.00    +0.017 A 
ATOM     27  C   UNL     1       4.962   3.067   0.321  0.00  0.00    +0.001 A 
ATOM     28  C   UNL     1       5.998   2.154   0.419  0.00  0.00    +0.004 A 
ATOM     29  C   UNL     1       5.785   0.821   0.127  0.00  0.00    +0.046 A 
BRANCH  24  30
ATOM     30  O   UNL     1       4.317  -0.920  -0.555  0.00  0.00    -0.491 OA
BRANCH  30  32
ATOM     31  C   UNL     1       5.394  -3.081  -0.670  0.00  0.00    +0.048 C 
ATOM     32  C   UNL     1       5.563  -1.592  -0.361  0.00  0.00    +0.226 C 
ENDBRANCH  30  32
ENDBRANCH  24  30
ENDBRANCH   1  25
TORSDOF 5
