REMARK  Name = m409
REMARK  7 active torsions:
REMARK  status: ('A' for Active; 'I' for Inactive)
REMARK    1  A    between atoms: C_1  and  C_2
REMARK    2  A    between atoms: C_5  and  C_6
REMARK    3  A    between atoms: C_8  and  N_9
REMARK    4  A    between atoms: N_9  and  C_10
REMARK    5  A    between atoms: C_10  and  C_11
REMARK    6  A    between atoms: C_16  and  C_17
REMARK    7  A    between atoms: C_25  and  C_26
REMARK                            x       y       z     vdW  Elec       q    Type
REMARK                         _______ _______ _______ _____ _____    ______ ____
ROOT
ATOM      1  N   UNL     1      -0.913  -1.099   0.101  0.00  0.00    -0.340 N 
ATOM      2  H   UNL     1      -1.022  -0.878   1.039  0.00  0.00    +0.146 HD
ENDROOT
BRANCH   1   8
ATOM      3  C   UNL     1       2.696  -0.515  -0.349  0.00  0.00    +0.042 A 
ATOM      4  C   UNL     1       2.841  -0.829  -1.701  0.00  0.00    -0.038 A 
ATOM      5  C   UNL     1       4.196  -0.735  -2.355  0.00  0.00    +0.044 C 
ATOM      6  C   UNL     1       1.747  -1.237  -2.436  0.00  0.00    +0.006 A 
ATOM      7  C   UNL     1       0.503  -1.325  -1.841  0.00  0.00    +0.023 A 
ATOM      8  C   UNL     1       0.347  -1.009  -0.496  0.00  0.00    +0.028 A 
ATOM      9  C   UNL     1       1.441  -0.604   0.252  0.00  0.00    +0.036 A 
BRANCH   3  13
ATOM     10  C   UNL     1       6.867   1.850   1.028  0.00  0.00    +0.069 C 
ATOM     11  C   UNL     1       5.671   0.934   1.046  0.00  0.00    +0.077 A 
ATOM     12  N   UNL     1       4.756   0.810   0.072  0.00  0.00    -0.214 NA
ATOM     13  C   UNL     1       3.869  -0.084   0.442  0.00  0.00    +0.228 A 
ATOM     14  O   UNL     1       4.200  -0.535   1.664  0.00  0.00    -0.443 OA
ATOM     15  C   UNL     1       5.327   0.099   2.043  0.00  0.00    +0.220 A 
ENDBRANCH   3  13
ENDBRANCH   1   8
BRANCH   1  16
ATOM     16  C   UNL     1      -2.070  -1.528  -0.690  0.00  0.00    +0.140 C 
BRANCH  16  17
ATOM     17  C   UNL     1      -3.298  -1.541   0.183  0.00  0.00    +0.015 A 
ATOM     18  C   UNL     1      -4.069  -0.419   0.547  0.00  0.00    +0.099 A 
ATOM     19  N   UNL     1      -5.057  -0.837   1.310  0.00  0.00    -0.174 NA
ATOM     20  N   UNL     1      -4.934  -2.224   1.460  0.00  0.00    -0.284 N 
ATOM     21  H   UNL     1      -5.525  -2.796   1.976  0.00  0.00    +0.188 HD
ATOM     22  C   UNL     1      -3.852  -2.629   0.761  0.00  0.00    +0.110 A 
BRANCH  18  23
ATOM     23  C   UNL     1      -3.819   0.984   0.133  0.00  0.00    +0.020 A 
ATOM     24  C   UNL     1      -2.521   1.489   0.094  0.00  0.00    +0.120 A 
ATOM     25  N   UNL     1      -2.297   2.733  -0.279  0.00  0.00    -0.263 NA
ATOM     26  C   UNL     1      -3.279   3.546  -0.616  0.00  0.00    +0.111 A 
ATOM     27  C   UNL     1      -4.595   3.121  -0.597  0.00  0.00    +0.020 A 
ATOM     28  C   UNL     1      -4.881   1.821  -0.218  0.00  0.00    +0.013 A 
ENDBRANCH  18  23
ENDBRANCH  16  17
ENDBRANCH   1  16
TORSDOF 5
