REMARK  Name = m410
REMARK  7 active torsions:
REMARK  status: ('A' for Active; 'I' for Inactive)
REMARK    1  A    between atoms: C_1  and  C_2
REMARK    2  A    between atoms: C_2  and  O_3
REMARK    3  A    between atoms: O_3  and  C_4
REMARK    4  A    between atoms: C_7  and  C_8
REMARK    5  A    between atoms: C_15  and  C_16
REMARK    6  A    between atoms: N_18  and  C_19
REMARK    7  A    between atoms: C_19  and  C_20
REMARK                            x       y       z     vdW  Elec       q    Type
REMARK                         _______ _______ _______ _____ _____    ______ ____
ROOT
ATOM      1  C   UNL     1       4.332  -0.589   0.374  0.00  0.00    +0.094 A 
ATOM      2  N   UNL     1       4.972  -1.625   0.891  0.00  0.00    -0.166 NA
ATOM      3  N   UNL     1       4.157  -2.756   0.784  0.00  0.00    -0.234 N 
ATOM      4  C   UNL     1       2.990  -2.374   0.170  0.00  0.00    +0.107 A 
ATOM      5  C   UNL     1       1.987  -3.345  -0.065  0.00  0.00    +0.147 A 
ATOM      6  N   UNL     1       2.193  -4.593   0.310  0.00  0.00    -0.237 NA
ATOM      7  C   UNL     1       3.333  -4.957   0.907  0.00  0.00    +0.132 A 
ATOM      8  N   UNL     1       0.800  -2.988  -0.682  0.00  0.00    -0.313 N 
ATOM      9  C   UNL     1       0.320  -1.600  -0.636  0.00  0.00    +0.107 C 
ATOM     10  C   UNL     1      -1.111  -1.587  -0.101  0.00  0.00    +0.031 C 
ATOM     11  C   UNL     1      -1.978  -2.524  -0.944  0.00  0.00    +0.078 C 
ATOM     12  C   UNL     1      -1.436  -3.952  -0.843  0.00  0.00    +0.031 C 
ATOM     13  C   UNL     1      -0.006  -3.991  -1.391  0.00  0.00    +0.107 C 
ATOM     14  C   UNL     1       4.315  -4.067   1.151  0.00  0.00    +0.133 A 
ATOM     15  C   UNL     1       3.087  -1.019  -0.092  0.00  0.00    +0.061 A 
ENDROOT
BRANCH   1  19
ATOM     16  C   UNL     1       5.823   3.389   0.151  0.00  0.00    +0.121 A 
ATOM     17  C   UNL     1       5.103   2.859  -0.911  0.00  0.00    +0.046 A 
ATOM     18  C   UNL     1       4.623   1.568  -0.844  0.00  0.00    +0.013 A 
ATOM     19  C   UNL     1       4.852   0.799   0.296  0.00  0.00    +0.002 A 
ATOM     20  C   UNL     1       5.570   1.336   1.363  0.00  0.00    +0.013 A 
ATOM     21  C   UNL     1       6.052   2.626   1.288  0.00  0.00    +0.046 A 
BRANCH  16  22
ATOM     22  O   UNL     1       6.299   4.660   0.080  0.00  0.00    -0.492 OA
BRANCH  22  24
ATOM     23  C   UNL     1       6.414   6.614  -1.338  0.00  0.00    +0.048 C 
ATOM     24  C   UNL     1       5.906   5.178  -1.193  0.00  0.00    +0.225 C 
ENDBRANCH  22  24
ENDBRANCH  16  22
ENDBRANCH   1  19
BRANCH  11  25
ATOM     25  C   UNL     1      -3.396  -2.488  -0.437  0.00  0.00    +0.216 C 
ATOM     26  N   UNL     1      -4.081  -1.327  -0.431  0.00  0.00    -0.311 N 
ATOM     27  H   UNL     1      -3.660  -0.514  -0.754  0.00  0.00    +0.149 HD
ATOM     28  O   UNL     1      -3.922  -3.504  -0.034  0.00  0.00    -0.276 OA
BRANCH  26  29
ATOM     29  C   UNL     1      -5.460  -1.292   0.061  0.00  0.00    +0.139 C 
BRANCH  29  30
ATOM     30  C   UNL     1      -5.993   0.114  -0.038  0.00  0.00    -0.027 A 
ATOM     31  C   UNL     1      -5.842   0.986   1.023  0.00  0.00    +0.054 A 
ATOM     32  C   UNL     1      -6.327   2.281   0.931  0.00  0.00    +0.167 A 
ATOM     33  O   UNL     1      -6.305   3.320   1.816  0.00  0.00    -0.453 OA
ATOM     34  C   UNL     1      -7.304   4.245   1.347  0.00  0.00    +0.466 C 
ATOM     35  O   UNL     1      -7.362   3.997  -0.070  0.00  0.00    -0.453 OA
ATOM     36  C   UNL     1      -6.977   2.696  -0.228  0.00  0.00    +0.166 A 
ATOM     37  C   UNL     1      -7.130   1.815  -1.286  0.00  0.00    +0.050 A 
ATOM     38  C   UNL     1      -6.638   0.527  -1.189  0.00  0.00    +0.009 A 
ENDBRANCH  29  30
ENDBRANCH  26  29
ENDBRANCH  11  25
TORSDOF 6
