REMARK  Name = m411
REMARK  7 active torsions:
REMARK  status: ('A' for Active; 'I' for Inactive)
REMARK    1  A    between atoms: C_1  and  C_2
REMARK    2  A    between atoms: C_2  and  C_3
REMARK    3  A    between atoms: C_8  and  N_9
REMARK    4  A    between atoms: C_10  and  C_12
REMARK    5  A    between atoms: C_12  and  N_13
REMARK    6  A    between atoms: C_16  and  C_17
REMARK    7  A    between atoms: C_19  and  C_20
REMARK                            x       y       z     vdW  Elec       q    Type
REMARK                         _______ _______ _______ _____ _____    ______ ____
ROOT
ATOM      1  N   UNL     1       1.690   1.550  -1.000  0.00  0.00    -0.203 N 
ATOM      2  C   UNL     1       1.629   2.810  -0.521  0.00  0.00    +0.351 A 
ATOM      3  O   UNL     1       2.551   3.605  -0.474  0.00  0.00    -0.244 OA
ATOM      4  N   UNL     1       0.365   3.034  -0.106  0.00  0.00    -0.250 N 
ATOM      5  C   UNL     1      -0.369   1.883  -0.326  0.00  0.00    +0.174 A 
ATOM      6  C   UNL     1      -1.792   1.862   0.049  0.00  0.00    +0.084 A 
ATOM      7  C   UNL     1      -2.340   3.003   0.610  0.00  0.00    +0.018 A 
ATOM      8  C   UNL     1      -1.533   4.132   0.803  0.00  0.00    +0.019 A 
ATOM      9  C   UNL     1      -0.232   4.133   0.453  0.00  0.00    +0.098 A 
ATOM     10  N   UNL     1       0.415   0.984  -0.863  0.00  0.00    -0.148 NA
ENDROOT
BRANCH   6  11
ATOM     11  C   UNL     1      -2.612   0.658  -0.167  0.00  0.00    +0.262 A 
ATOM     12  O   UNL     1      -2.203  -0.503  -0.704  0.00  0.00    -0.332 OA
ATOM     13  N   UNL     1      -3.125  -1.290  -0.735  0.00  0.00    -0.056 NA
ATOM     14  C   UNL     1      -4.209  -0.743  -0.245  0.00  0.00    +0.202 A 
ATOM     15  N   UNL     1      -3.894   0.514   0.126  0.00  0.00    -0.187 NA
BRANCH  14  16
ATOM     16  C   UNL     1      -5.540  -1.389  -0.122  0.00  0.00    +0.025 A 
ATOM     17  C   UNL     1      -6.609  -0.685   0.426  0.00  0.00    +0.050 A 
ATOM     18  C   UNL     1      -7.848  -1.289   0.534  0.00  0.00    +0.124 A 
ATOM     19  F   UNL     1      -8.889  -0.606   1.060  0.00  0.00    -0.205 F 
ATOM     20  C   UNL     1      -8.023  -2.595   0.108  0.00  0.00    +0.038 A 
ATOM     21  C   UNL     1      -6.961  -3.299  -0.432  0.00  0.00    +0.003 A 
ATOM     22  C   UNL     1      -5.722  -2.702  -0.549  0.00  0.00    +0.012 A 
ENDBRANCH  14  16
ENDBRANCH   6  11
BRANCH   1  23
ATOM     23  C   UNL     1       2.874   0.892  -1.556  0.00  0.00    +0.244 C 
BRANCH  23  26
ATOM     24  N   UNL     1       4.759  -0.480  -0.730  0.00  0.00    -0.284 N 
ATOM     25  H   UNL     1       5.041  -0.596  -1.651  0.00  0.00    +0.155 HD
ATOM     26  C   UNL     1       3.628   0.197  -0.452  0.00  0.00    +0.239 C 
ATOM     27  O   UNL     1       3.216   0.246   0.688  0.00  0.00    -0.273 OA
BRANCH  24  29
ATOM     28  C   UNL     1       6.303  -2.147   0.089  0.00  0.00    -0.026 A 
ATOM     29  C   UNL     1       5.528  -1.017   0.309  0.00  0.00    +0.037 A 
ATOM     30  C   UNL     1       5.508  -0.426   1.566  0.00  0.00    +0.023 A 
ATOM     31  C   UNL     1       6.267  -0.958   2.589  0.00  0.00    +0.002 A 
ATOM     32  C   UNL     1       7.043  -2.080   2.365  0.00  0.00    +0.000 A 
ATOM     33  C   UNL     1       7.061  -2.674   1.117  0.00  0.00    +0.005 A 
BRANCH  28  35
ATOM     34  C   UNL     1       7.352  -2.090  -2.158  0.00  0.00    +0.009 C 
ATOM     35  C   UNL     1       6.323  -2.795  -1.272  0.00  0.00    +0.033 C 
ENDBRANCH  28  35
ENDBRANCH  24  29
ENDBRANCH  23  26
ENDBRANCH   1  23
TORSDOF 6
