REMARK  Name = m412
REMARK  9 active torsions:
REMARK  status: ('A' for Active; 'I' for Inactive)
REMARK    1  A    between atoms: C_1  and  C_2
REMARK    2  A    between atoms: C_2  and  O_3
REMARK    3  A    between atoms: O_3  and  C_4
REMARK    4  A    between atoms: C_4  and  C_6
REMARK    5  A    between atoms: N_9  and  C_10
REMARK    6  A    between atoms: N_21  and  C_22
REMARK    7  A    between atoms: C_22  and  C_23
REMARK    8  A    between atoms: N_25  and  C_26
REMARK    9  A    between atoms: C_30  and  C_31
REMARK                            x       y       z     vdW  Elec       q    Type
REMARK                         _______ _______ _______ _____ _____    ______ ____
ROOT
ATOM      1  C   UNL     1      -1.505  -2.042   0.387  0.00  0.00    +0.158 C 
ATOM      2  C   UNL     1      -0.309  -2.116   1.061  0.00  0.00    +0.139 C 
ATOM      3  N   UNL     1       0.552  -3.210   0.819  0.00  0.00    -0.284 NA
ATOM      4  H   UNL     1       0.441  -3.878   1.567  0.00  0.00    +0.142 HD
ATOM      5  C   UNL     1       1.838  -2.666   0.940  0.00  0.00    +0.314 C 
ATOM      6  N   UNL     1       1.721  -1.541   1.692  0.00  0.00    -0.197 N 
ATOM      7  O   UNL     1       2.859  -3.113   0.463  0.00  0.00    -0.252 OA
ATOM      8  C   UNL     1       0.456  -3.826  -0.249  0.00  0.00    +0.051 A 
ATOM      9  C   UNL     1      -0.709  -3.705  -1.025  0.00  0.00    +0.086 A 
ATOM     10  C   UNL     1      -0.843  -4.468  -2.194  0.00  0.00    +0.029 A 
ATOM     11  C   UNL     1       0.177  -5.305  -2.587  0.00  0.00    +0.002 A 
ATOM     12  C   UNL     1       1.333  -5.398  -1.830  0.00  0.00    +0.002 A 
ATOM     13  C   UNL     1       1.469  -4.661  -0.665  0.00  0.00    +0.024 A 
ATOM     14  N   UNL     1       0.355  -1.395   2.025  0.00  0.00    -0.245 N 
ATOM     15  H   UNL     1      -0.027  -0.896   2.764  0.00  0.00    +0.172 HD
ATOM     16  N   UNL     1      -1.703  -2.869  -0.647  0.00  0.00    -0.228 NA
ENDROOT
BRANCH   1  20
ATOM     17  C   UNL     1      -4.313   1.016   0.491  0.00  0.00    +0.101 C 
ATOM     18  C   UNL     1      -2.806   1.281   0.513  0.00  0.00    +0.033 C 
ATOM     19  C   UNL     1      -2.110   0.183   1.323  0.00  0.00    +0.107 C 
ATOM     20  N   UNL     1      -2.484  -1.124   0.766  0.00  0.00    -0.313 N 
ATOM     21  C   UNL     1      -3.910  -1.446   0.617  0.00  0.00    +0.107 C 
ATOM     22  C   UNL     1      -4.586  -0.329  -0.185  0.00  0.00    +0.033 C 
BRANCH  17  23
ATOM     23  C   UNL     1      -5.005   2.113  -0.276  0.00  0.00    +0.310 C 
ATOM     24  O   UNL     1      -5.650   1.847  -1.262  0.00  0.00    -0.251 OA
BRANCH  23  25
ATOM     25  O   UNL     1      -4.905   3.387   0.136  0.00  0.00    -0.465 OA
BRANCH  25  27
ATOM     26  C   UNL     1      -5.298   5.789   0.073  0.00  0.00    +0.048 C 
ATOM     27  C   UNL     1      -5.571   4.444  -0.603  0.00  0.00    +0.229 C 
ENDBRANCH  25  27
ENDBRANCH  23  25
ENDBRANCH  17  23
ENDBRANCH   1  20
BRANCH   6  28
ATOM     28  C   UNL     1       2.811  -0.644   2.085  0.00  0.00    +0.228 C 
BRANCH  28  29
ATOM     29  C   UNL     1       2.979   0.430   1.042  0.00  0.00    +0.236 C 
ATOM     30  N   UNL     1       3.929   1.374   1.193  0.00  0.00    -0.284 N 
ATOM     31  H   UNL     1       4.556   1.316   1.930  0.00  0.00    +0.155 HD
ATOM     32  O   UNL     1       2.259   0.445   0.065  0.00  0.00    -0.274 OA
BRANCH  30  33
ATOM     33  C   UNL     1       4.009   2.437   0.287  0.00  0.00    +0.034 A 
ATOM     34  C   UNL     1       5.242   2.994  -0.024  0.00  0.00    +0.026 A 
ATOM     35  C   UNL     1       5.319   4.040  -0.924  0.00  0.00    -0.049 A 
ATOM     36  C   UNL     1       6.657   4.640  -1.268  0.00  0.00    +0.044 C 
ATOM     37  C   UNL     1       4.168   4.540  -1.504  0.00  0.00    +0.003 A 
ATOM     38  C   UNL     1       2.937   3.992  -1.191  0.00  0.00    +0.002 A 
ATOM     39  C   UNL     1       2.855   2.942  -0.298  0.00  0.00    +0.023 A 
ENDBRANCH  30  33
ENDBRANCH  28  29
ENDBRANCH   6  28
TORSDOF 7
