REMARK  Name = m413
REMARK  8 active torsions:
REMARK  status: ('A' for Active; 'I' for Inactive)
REMARK    1  A    between atoms: C_1  and  O_2
REMARK    2  A    between atoms: O_2  and  C_3
REMARK    3  A    between atoms: C_6  and  N_7
REMARK    4  A    between atoms: C_8  and  C_10
REMARK    5  A    between atoms: C_13  and  C_14
REMARK    6  A    between atoms: C_14  and  N_15
REMARK    7  A    between atoms: C_19  and  C_20
REMARK    8  A    between atoms: C_19  and  C_21
REMARK                            x       y       z     vdW  Elec       q    Type
REMARK                         _______ _______ _______ _____ _____    ______ ____
ROOT
ATOM      1  C   UNL     1      -1.242   0.327   2.151  0.00  0.00    +0.153 C 
ENDROOT
BRANCH   1   2
ATOM      2  N   UNL     1      -2.138  -0.127   1.084  0.00  0.00    -0.220 N 
ATOM      3  C   UNL     1      -2.752   0.695   0.210  0.00  0.00    +0.251 C 
ATOM      4  O   UNL     1      -2.667   1.904   0.159  0.00  0.00    -0.272 OA
ATOM      5  C   UNL     1      -3.563  -0.205  -0.699  0.00  0.00    +0.135 C 
ATOM      6  C   UNL     1      -3.090  -0.082  -2.149  0.00  0.00    +0.047 C 
ATOM      7  N   UNL     1      -3.293  -1.557  -0.179  0.00  0.00    -0.281 N 
ATOM      8  H   UNL     1      -3.652  -2.391  -0.519  0.00  0.00    +0.152 HD
ATOM      9  C   UNL     1      -2.451  -1.408   0.860  0.00  0.00    +0.310 C 
ATOM     10  O   UNL     1      -2.024  -2.334   1.521  0.00  0.00    -0.252 OA
BRANCH   5  11
ATOM     11  C   UNL     1      -5.031   0.120  -0.593  0.00  0.00    -0.012 A 
ATOM     12  C   UNL     1      -5.971  -0.888  -0.708  0.00  0.00    +0.055 A 
ATOM     13  C   UNL     1      -7.320  -0.592  -0.606  0.00  0.00    +0.167 A 
ATOM     14  O   UNL     1      -8.429  -1.385  -0.677  0.00  0.00    -0.453 OA
ATOM     15  C   UNL     1      -9.529  -0.488  -0.920  0.00  0.00    +0.466 C 
ATOM     16  O   UNL     1      -9.091   0.754  -0.339  0.00  0.00    -0.453 OA
ATOM     17  C   UNL     1      -7.727   0.724  -0.398  0.00  0.00    +0.166 A 
ATOM     18  C   UNL     1      -6.780   1.729  -0.290  0.00  0.00    +0.050 A 
ATOM     19  C   UNL     1      -5.435   1.426  -0.387  0.00  0.00    +0.010 A 
ENDBRANCH   5  11
ENDBRANCH   1   2
BRANCH   1  23
ATOM     20  C   UNL     1       2.776   0.436   0.691  0.00  0.00    +0.037 A 
ATOM     21  C   UNL     1       2.274  -0.728   1.277  0.00  0.00    +0.013 A 
ATOM     22  C   UNL     1       0.979  -0.754   1.751  0.00  0.00    +0.006 A 
ATOM     23  C   UNL     1       0.174   0.365   1.636  0.00  0.00    -0.030 A 
ATOM     24  C   UNL     1       0.663   1.519   1.051  0.00  0.00    +0.006 A 
ATOM     25  C   UNL     1       1.958   1.561   0.578  0.00  0.00    +0.013 A 
BRANCH  20  28
ATOM     26  N   UNL     1       4.952  -0.615   0.297  0.00  0.00    -0.281 N 
ATOM     27  H   UNL     1       4.584  -1.447   0.634  0.00  0.00    +0.155 HD
ATOM     28  C   UNL     1       4.165   0.474   0.186  0.00  0.00    +0.248 C 
ATOM     29  O   UNL     1       4.597   1.486  -0.328  0.00  0.00    -0.270 OA
BRANCH  26  33
ATOM     30  C   UNL     1       8.966  -0.406  -0.809  0.00  0.00    +0.120 A 
ATOM     31  C   UNL     1       8.341   0.701  -0.253  0.00  0.00    +0.047 A 
ATOM     32  C   UNL     1       7.011   0.634   0.109  0.00  0.00    +0.027 A 
ATOM     33  C   UNL     1       6.300  -0.545  -0.075  0.00  0.00    +0.034 A 
ATOM     34  C   UNL     1       6.927  -1.654  -0.626  0.00  0.00    +0.027 A 
ATOM     35  C   UNL     1       8.257  -1.585  -0.992  0.00  0.00    +0.047 A 
BRANCH  30  37
ATOM     36  C   UNL     1      10.720   0.984  -0.861  0.00  0.00    +0.277 C 
ATOM     37  O   UNL     1      10.275  -0.338  -1.169  0.00  0.00    -0.495 OA
ENDBRANCH  30  37
ENDBRANCH  26  33
ENDBRANCH  20  28
ENDBRANCH   1  23
TORSDOF 6
